# vtk DataFile Version 3.0
anvil_cfd_result
ASCII
DATASET STRUCTURED_GRID
DIMENSIONS 81 31 1
POINTS 2511 double
0.00000000e+00 3.72665317e-07 0.0
2.50000000e-02 6.90812364e-07 0.0
5.00000000e-02 1.26071052e-06 0.0
7.50000000e-02 2.26508654e-06 0.0
1.00000000e-01 4.00652974e-06 0.0
1.25000000e-01 6.97695772e-06 0.0
1.50000000e-01 1.19612884e-05 0.0
1.75000000e-01 2.01884966e-05 0.0
2.00000000e-01 3.35462628e-05 0.0
2.25000000e-01 5.48780233e-05 0.0
2.50000000e-01 8.83826307e-05 0.0
2.75000000e-01 1.40135942e-04 0.0
3.00000000e-01 2.18749112e-04 0.0
3.25000000e-01 3.36168649e-04 0.0
3.50000000e-01 5.08606923e-04 0.0
3.75000000e-01 7.57567744e-04 0.0
4.00000000e-01 1.11089965e-03 0.0
4.25000000e-01 1.60377093e-03 0.0
4.50000000e-01 2.27941809e-03 0.0
4.75000000e-01 3.18947934e-03 0.0
5.00000000e-01 4.39369336e-03 0.0
5.25000000e-01 5.95873188e-03 0.0
5.50000000e-01 7.95595087e-03 0.0
5.75000000e-01 1.04579001e-02 0.0
6.00000000e-01 1.35335283e-02 0.0
6.25000000e-01 1.72421624e-02 0.0
6.50000000e-01 2.16265167e-02 0.0
6.75000000e-01 2.67051835e-02 0.0
7.00000000e-01 3.24652467e-02 0.0
7.25000000e-01 3.88558128e-02 0.0
7.50000000e-01 4.57833362e-02 0.0
7.75000000e-01 5.31095991e-02 0.0
8.00000000e-01 6.06530660e-02 0.0
8.25000000e-01 6.81940751e-02 0.0
8.50000000e-01 7.54839602e-02 0.0
8.75000000e-01 8.22577562e-02 0.0
9.00000000e-01 8.82496903e-02 0.0
9.25000000e-01 9.32102492e-02 0.0
9.50000000e-01 9.69233234e-02 0.0
9.75000000e-01 9.92217938e-02 0.0
1.00000000e+00 1.00000000e-01 0.0
1.02500000e+00 9.92217938e-02 0.0
1.05000000e+00 9.69233234e-02 0.0
1.07500000e+00 9.32102492e-02 0.0
1.10000000e+00 8.82496903e-02 0.0
1.12500000e+00 8.22577562e-02 0.0
1.15000000e+00 7.54839602e-02 0.0
1.17500000e+00 6.81940751e-02 0.0
1.20000000e+00 6.06530660e-02 0.0
1.22500000e+00 5.31095991e-02 0.0
1.25000000e+00 4.57833362e-02 0.0
1.27500000e+00 3.88558128e-02 0.0
1.30000000e+00 3.24652467e-02 0.0
1.32500000e+00 2.67051835e-02 0.0
1.35000000e+00 2.16265167e-02 0.0
1.37500000e+00 1.72421624e-02 0.0
1.40000000e+00 1.35335283e-02 0.0
1.42500000e+00 1.04579001e-02 0.0
1.45000000e+00 7.95595087e-03 0.0
1.47500000e+00 5.95873188e-03 0.0
1.50000000e+00 4.39369336e-03 0.0
1.52500000e+00 3.18947934e-03 0.0
1.55000000e+00 2.27941809e-03 0.0
1.57500000e+00 1.60377093e-03 0.0
1.60000000e+00 1.11089965e-03 0.0
1.62500000e+00 7.57567744e-04 0.0
1.65000000e+00 5.08606923e-04 0.0
1.67500000e+00 3.36168649e-04 0.0
1.70000000e+00 2.18749112e-04 0.0
1.72500000e+00 1.40135942e-04 0.0
1.75000000e+00 8.83826307e-05 0.0
1.77500000e+00 5.48780233e-05 0.0
1.80000000e+00 3.35462628e-05 0.0
1.82500000e+00 2.01884966e-05 0.0
1.85000000e+00 1.19612884e-05 0.0
1.87500000e+00 6.97695772e-06 0.0
1.90000000e+00 4.00652974e-06 0.0
1.92500000e+00 2.26508654e-06 0.0
1.95000000e+00 1.26071052e-06 0.0
1.97500000e+00 6.90812364e-07 0.0
2.00000000e+00 3.72665317e-07 0.0
0.00000000e+00 1.66670269e-02 0.0
2.50000000e-02 1.66673345e-02 0.0
5.00000000e-02 1.66678854e-02 0.0
7.50000000e-02 1.66688562e-02 0.0
1.00000000e-01 1.66705396e-02 0.0
1.25000000e-01 1.66734111e-02 0.0
1.50000000e-01 1.66782292e-02 0.0
1.75000000e-01 1.66861822e-02 0.0
2.00000000e-01 1.66990947e-02 0.0
2.25000000e-01 1.67197154e-02 0.0
2.50000000e-01 1.67521032e-02 0.0
2.75000000e-01 1.68021314e-02 0.0
3.00000000e-01 1.68781241e-02 0.0
3.25000000e-01 1.69916297e-02 0.0
3.50000000e-01 1.71583200e-02 0.0
3.75000000e-01 1.73989822e-02 0.0
4.00000000e-01 1.77405363e-02 0.0
4.25000000e-01 1.82169786e-02 0.0
4.50000000e-01 1.88701042e-02 0.0
4.75000000e-01 1.97498300e-02 0.0
5.00000000e-01 2.09139036e-02 0.0
5.25000000e-01 2.24267741e-02 0.0
5.50000000e-01 2.43574192e-02 0.0
5.75000000e-01 2.67759701e-02 0.0
6.00000000e-01 2.97490774e-02 0.0
6.25000000e-01 3.33340903e-02 0.0
6.50000000e-01 3.75722995e-02 0.0
6.75000000e-01 4.24816774e-02 0.0
7.00000000e-01 4.80497385e-02 0.0
7.25000000e-01 5.42272857e-02 0.0
7.50000000e-01 6.09238916e-02 0.0
7.75000000e-01 6.80059458e-02 0.0
8.00000000e-01 7.52979638e-02 0.0
8.25000000e-01 8.25876059e-02 0.0
8.50000000e-01 8.96344949e-02 0.0
8.75000000e-01 9.61824977e-02 0.0
9.00000000e-01 1.01974701e-01 0.0
9.25000000e-01 1.06769908e-01 0.0
9.50000000e-01 1.10359213e-01 0.0
9.75000000e-01 1.12581067e-01 0.0
1.00000000e+00 1.13333333e-01 0.0
1.02500000e+00 1.12581067e-01 0.0
1.05000000e+00 1.10359213e-01 0.0
1.07500000e+00 1.06769908e-01 0.0
1.10000000e+00 1.01974701e-01 0.0
1.12500000e+00 9.61824977e-02 0.0
1.15000000e+00 8.96344949e-02 0.0
1.17500000e+00 8.25876059e-02 0.0
1.20000000e+00 7.52979638e-02 0.0
1.22500000e+00 6.80059458e-02 0.0
1.25000000e+00 6.09238916e-02 0.0
1.27500000e+00 5.42272857e-02 0.0
1.30000000e+00 4.80497385e-02 0.0
1.32500000e+00 4.24816774e-02 0.0
1.35000000e+00 3.75722995e-02 0.0
1.37500000e+00 3.33340903e-02 0.0
1.40000000e+00 2.97490774e-02 0.0
1.42500000e+00 2.67759701e-02 0.0
1.45000000e+00 2.43574192e-02 0.0
1.47500000e+00 2.24267741e-02 0.0
1.50000000e+00 2.09139036e-02 0.0
1.52500000e+00 1.97498300e-02 0.0
1.55000000e+00 1.88701042e-02 0.0
1.57500000e+00 1.82169786e-02 0.0
1.60000000e+00 1.77405363e-02 0.0
1.62500000e+00 1.73989822e-02 0.0
1.65000000e+00 1.71583200e-02 0.0
1.67500000e+00 1.69916297e-02 0.0
1.70000000e+00 1.68781241e-02 0.0
1.72500000e+00 1.68021314e-02 0.0
1.75000000e+00 1.67521032e-02 0.0
1.77500000e+00 1.67197154e-02 0.0
1.80000000e+00 1.66990947e-02 0.0
1.82500000e+00 1.66861822e-02 0.0
1.85000000e+00 1.66782292e-02 0.0
1.87500000e+00 1.66734111e-02 0.0
1.90000000e+00 1.66705396e-02 0.0
1.92500000e+00 1.66688562e-02 0.0
1.95000000e+00 1.66678854e-02 0.0
1.97500000e+00 1.66673345e-02 0.0
2.00000000e+00 1.66670269e-02 0.0
0.00000000e+00 3.33336812e-02 0.0
2.50000000e-02 3.33339781e-02 0.0
5.00000000e-02 3.33345100e-02 0.0
7.50000000e-02 3.33354474e-02 0.0
1.00000000e-01 3.33370728e-02 0.0
1.25000000e-01 3.33398452e-02 0.0
1.50000000e-01 3.33444972e-02 0.0
1.75000000e-01 3.33521759e-02 0.0
2.00000000e-01 3.33646432e-02 0.0
2.25000000e-01 3.33845528e-02 0.0
2.50000000e-01 3.34158238e-02 0.0
2.75000000e-01 3.34641269e-02 0.0
3.00000000e-01 3.35374992e-02 0.0
3.25000000e-01 3.36470907e-02 0.0
3.50000000e-01 3.38080331e-02 0.0
3.75000000e-01 3.40403966e-02 0.0
4.00000000e-01 3.43701730e-02 0.0
4.25000000e-01 3.48301862e-02 0.0
4.50000000e-01 3.54607902e-02 0.0
4.75000000e-01 3.63101807e-02 0.0
5.00000000e-01 3.74341138e-02 0.0
5.25000000e-01 3.88948164e-02 0.0
5.50000000e-01 4.07588875e-02 0.0
5.75000000e-01 4.30940401e-02 0.0
6.00000000e-01 4.59646264e-02 0.0
6.25000000e-01 4.94260182e-02 0.0
6.50000000e-01 5.35180822e-02 0.0
6.75000000e-01 5.82581713e-02 0.0
7.00000000e-01 6.36342303e-02 0.0
7.25000000e-01 6.95987586e-02 0.0
7.50000000e-01 7.60644471e-02 0.0
7.75000000e-01 8.29022925e-02 0.0
8.00000000e-01 8.99428616e-02 0.0
8.25000000e-01 9.69811368e-02 0.0
8.50000000e-01 1.03785030e-01 0.0
8.75000000e-01 1.10107239e-01 0.0
9.00000000e-01 1.15699711e-01 0.0
9.25000000e-01 1.20329566e-01 0.0
9.50000000e-01 1.23795102e-01 0.0
9.75000000e-01 1.25940341e-01 0.0
1.00000000e+00 1.26666667e-01 0.0
1.02500000e+00 1.25940341e-01 0.0
1.05000000e+00 1.23795102e-01 0.0
1.07500000e+00 1.20329566e-01 0.0
1.10000000e+00 1.15699711e-01 0.0
1.12500000e+00 1.10107239e-01 0.0
1.15000000e+00 1.03785030e-01 0.0
1.17500000e+00 9.69811368e-02 0.0
1.20000000e+00 8.99428616e-02 0.0
1.22500000e+00 8.29022925e-02 0.0
1.25000000e+00 7.60644471e-02 0.0
1.27500000e+00 6.95987586e-02 0.0
1.30000000e+00 6.36342303e-02 0.0
1.32500000e+00 5.82581713e-02 0.0
1.35000000e+00 5.35180822e-02 0.0
1.37500000e+00 4.94260182e-02 0.0
1.40000000e+00 4.59646264e-02 0.0
1.42500000e+00 4.30940401e-02 0.0
1.45000000e+00 4.07588875e-02 0.0
1.47500000e+00 3.88948164e-02 0.0
1.50000000e+00 3.74341138e-02 0.0
1.52500000e+00 3.63101807e-02 0.0
1.55000000e+00 3.54607902e-02 0.0
1.57500000e+00 3.48301862e-02 0.0
1.60000000e+00 3.43701730e-02 0.0
1.62500000e+00 3.40403966e-02 0.0
1.65000000e+00 3.38080331e-02 0.0
1.67500000e+00 3.36470907e-02 0.0
1.70000000e+00 3.35374992e-02 0.0
1.72500000e+00 3.34641269e-02 0.0
1.75000000e+00 3.34158238e-02 0.0
1.77500000e+00 3.33845528e-02 0.0
1.80000000e+00 3.33646432e-02 0.0
1.82500000e+00 3.33521759e-02 0.0
1.85000000e+00 3.33444972e-02 0.0
1.87500000e+00 3.33398452e-02 0.0
1.90000000e+00 3.33370728e-02 0.0
1.92500000e+00 3.33354474e-02 0.0
1.95000000e+00 3.33345100e-02 0.0
1.97500000e+00 3.33339781e-02 0.0
2.00000000e+00 3.33336812e-02 0.0
0.00000000e+00 5.00003354e-02 0.0
2.50000000e-02 5.00006217e-02 0.0
5.00000000e-02 5.00011346e-02 0.0
7.50000000e-02 5.00020386e-02 0.0
1.00000000e-01 5.00036059e-02 0.0
1.25000000e-01 5.00062793e-02 0.0
1.50000000e-01 5.00107652e-02 0.0
1.75000000e-01 5.00181696e-02 0.0
2.00000000e-01 5.00301916e-02 0.0
2.25000000e-01 5.00493902e-02 0.0
2.50000000e-01 5.00795444e-02 0.0
2.75000000e-01 5.01261223e-02 0.0
3.00000000e-01 5.01968742e-02 0.0
3.25000000e-01 5.03025518e-02 0.0
3.50000000e-01 5.04577462e-02 0.0
3.75000000e-01 5.06818110e-02 0.0
4.00000000e-01 5.09998097e-02 0.0
4.25000000e-01 5.14433938e-02 0.0
4.50000000e-01 5.20514763e-02 0.0
4.75000000e-01 5.28705314e-02 0.0
5.00000000e-01 5.39543240e-02 0.0
5.25000000e-01 5.53628587e-02 0.0
5.50000000e-01 5.71603558e-02 0.0
5.75000000e-01 5.94121101e-02 0.0
6.00000000e-01 6.21801755e-02 0.0
6.25000000e-01 6.55179462e-02 0.0
6.50000000e-01 6.94638650e-02 0.0
6.75000000e-01 7.40346652e-02 0.0
7.00000000e-01 7.92187221e-02 0.0
7.25000000e-01 8.49702315e-02 0.0
7.50000000e-01 9.12050026e-02 0.0
7.75000000e-01 9.77986392e-02 0.0
8.00000000e-01 1.04587759e-01 0.0
8.25000000e-01 1.11374668e-01 0.0
8.50000000e-01 1.17935564e-01 0.0
8.75000000e-01 1.24031981e-01 0.0
9.00000000e-01 1.29424721e-01 0.0
9.25000000e-01 1.33889224e-01 0.0
9.50000000e-01 1.37230991e-01 0.0
9.75000000e-01 1.39299614e-01 0.0
1.00000000e+00 1.40000000e-01 0.0
1.02500000e+00 1.39299614e-01 0.0
1.05000000e+00 1.37230991e-01 0.0
1.07500000e+00 1.33889224e-01 0.0
1.10000000e+00 1.29424721e-01 0.0
1.12500000e+00 1.24031981e-01 0.0
1.15000000e+00 1.17935564e-01 0.0
[...]
CELL_DATA 2400
SCALARS rho double 1
LOOKUP_TABLE default
1.09656141e+00
1.09913900e+00
1.10124350e+00
1.10313186e+00
1.10429139e+00
1.10478159e+00
1.10490553e+00
1.10459796e+00
1.10394912e+00
1.10300127e+00
1.10191390e+00
1.10093330e+00
1.10021464e+00
1.09978505e+00
1.09959995e+00
1.09969599e+00
1.09992958e+00
1.10030672e+00
1.10078632e+00
1.10126817e+00
1.10160525e+00
1.10159213e+00
1.10124519e+00
1.10064602e+00
1.09870965e+00
1.09572109e+00
1.09124240e+00
1.08490684e+00
1.07665691e+00
1.06644105e+00
1.05432762e+00
1.04045694e+00
1.02502698e+00
1.00725601e+00
9.85778529e-01
9.60192423e-01
9.27383843e-01
8.89116434e-01
8.53824820e-01
8.39199315e-01
8.67365529e-01
8.79493752e-01
8.70328300e-01
8.77781134e-01
9.11019657e-01
9.47648015e-01
9.82142212e-01
1.00912050e+00
1.03308870e+00
1.05303407e+00
1.06814071e+00
1.07881483e+00
1.08675048e+00
1.09347219e+00
1.09967129e+00
1.10524983e+00
1.11045616e+00
1.11549275e+00
1.12068695e+00
1.12541884e+00
1.12914481e+00
1.13147198e+00
1.13226409e+00
1.13171680e+00
1.13014345e+00
1.12741211e+00
1.12391578e+00
1.11987324e+00
1.11554926e+00
1.11121676e+00
1.10722112e+00
1.10371462e+00
1.10072788e+00
1.09827038e+00
1.09638011e+00
1.09499149e+00
1.09400250e+00
1.09333022e+00
1.09294253e+00
1.09285298e+00
1.09651819e+00
1.09906771e+00
1.10113318e+00
1.10297963e+00
1.10409927e+00
1.10455118e+00
1.10463945e+00
1.10428286e+00
1.10357071e+00
1.10256275e+00
1.10139582e+00
1.10029795e+00
1.09942276e+00
1.09879744e+00
1.09839120e+00
1.09815738e+00
1.09807880e+00
1.09812862e+00
1.09825156e+00
1.09843331e+00
1.09851258e+00
1.09844749e+00
1.09801582e+00
1.09719659e+00
1.09494002e+00
1.09184068e+00
1.08752283e+00
1.08154565e+00
1.07395079e+00
1.06480312e+00
1.05425353e+00
1.04232675e+00
1.02935125e+00
1.01342570e+00
9.95269874e-01
9.72155193e-01
9.41925647e-01
9.06798896e-01
8.74877600e-01
8.62105996e-01
8.87595690e-01
8.97040672e-01
8.86048935e-01
8.89320347e-01
9.16044011e-01
9.47928179e-01
9.78822311e-01
1.00405323e+00
1.02611833e+00
1.04573842e+00
1.06130543e+00
1.07289265e+00
1.08191850e+00
1.08992542e+00
1.09724749e+00
1.10381037e+00
1.10992252e+00
1.11568945e+00
1.12097948e+00
1.12569155e+00
1.12942099e+00
1.13179102e+00
1.13265464e+00
1.13218591e+00
1.13067425e+00
1.12798914e+00
1.12450535e+00
1.12045973e+00
1.11613044e+00
1.11187547e+00
1.10788192e+00
1.10429833e+00
1.10124941e+00
1.09880852e+00
1.09696509e+00
1.09560785e+00
1.09465352e+00
1.09401656e+00
1.09369079e+00
1.09359515e+00
1.09648043e+00
1.09903506e+00
1.10109295e+00
1.10294120e+00
1.10406783e+00
1.10452906e+00
1.10462179e+00
1.10426008e+00
1.10354192e+00
1.10251825e+00
1.10131817e+00
1.10015109e+00
1.09916688e+00
1.09840548e+00
1.09783477e+00
1.09739914e+00
1.09707774e+00
1.09684041e+00
1.09666793e+00
1.09651422e+00
1.09628604e+00
1.09581951e+00
1.09521182e+00
1.09384421e+00
1.09174245e+00
1.08846464e+00
1.08379359e+00
1.07781764e+00
1.07047434e+00
1.06186921e+00
1.05199205e+00
1.04130386e+00
1.02885055e+00
1.01401428e+00
9.96527526e-01
9.73999603e-01
9.45767884e-01
9.14558224e-01
8.88188926e-01
8.79564108e-01
9.01855864e-01
9.10046665e-01
8.99902556e-01
9.02621047e-01
9.24061799e-01
9.51412360e-01
9.78493873e-01
1.00289747e+00
1.02416965e+00
1.04332960e+00
1.05848114e+00
1.07012352e+00
1.07973146e+00
1.08840169e+00
1.09634561e+00
1.10330679e+00
1.10949768e+00
1.11467946e+00
1.11927551e+00
1.12322282e+00
1.12659296e+00
1.12898634e+00
1.13003612e+00
1.12982625e+00
1.12859126e+00
1.12629212e+00
1.12325129e+00
1.11967081e+00
1.11586047e+00
1.11206422e+00
1.10841125e+00
1.10508198e+00
1.10224389e+00
1.09994431e+00
1.09809845e+00
1.09667309e+00
1.09566734e+00
1.09499932e+00
1.09461139e+00
1.09441058e+00
1.09642117e+00
1.09897648e+00
1.10101593e+00
1.10286000e+00
1.10399283e+00
1.10446723e+00
1.10456787e+00
1.10420850e+00
1.10348621e+00
1.10244517e+00
1.10121500e+00
1.09997929e+00
1.09887337e+00
1.09795871e+00
1.09720661e+00
1.09656021e+00
1.09599397e+00
1.09548783e+00
1.09503109e+00
1.09456609e+00
1.09398241e+00
1.09333827e+00
1.09220982e+00
1.09070456e+00
1.08831772e+00
1.08492080e+00
1.08032952e+00
1.07462511e+00
1.06781093e+00
1.05998440e+00
1.05113430e+00
1.04154136e+00
1.02946575e+00
1.01564336e+00
9.98010698e-01
9.75611461e-01
9.48921205e-01
9.21316936e-01
9.00123317e-01
8.94344290e-01
9.14837706e-01
9.22396142e-01
9.13738205e-01
9.15894737e-01
9.32601389e-01
9.55481876e-01
9.78960588e-01
1.00194469e+00
1.02205110e+00
1.04020196e+00
1.05480710e+00
1.06664317e+00
1.07707942e+00
1.08664542e+00
1.09540572e+00
1.10294271e+00
1.10893324e+00
1.11348127e+00
1.11723004e+00
1.12025402e+00
1.12291597e+00
1.12505022e+00
1.12612331e+00
1.12601914e+00
1.12501396e+00
1.12313149e+00
1.12061000e+00
1.11761098e+00
1.11439124e+00
1.11116241e+00
1.10795670e+00
1.10494803e+00
1.10232947e+00
1.10020546e+00
1.09850105e+00
1.09716437e+00
1.09616459e+00
1.09545096e+00
1.09498247e+00
1.09466971e+00
1.09634825e+00
1.09890810e+00
1.10092430e+00
1.10276318e+00
1.10390623e+00
1.10439870e+00
1.10450999e+00
1.10416774e+00
1.10344802e+00
1.10239144e+00
1.10113979e+00
1.09983468e+00
1.09860589e+00
1.09753706e+00
1.09660255e+00
1.09574881e+00
1.09494728e+00
1.09418781e+00
1.09345009e+00
1.09267203e+00
1.09190905e+00
1.09084882e+00
1.08958197e+00
1.08775681e+00
1.08521935e+00
1.08177911e+00
1.07732987e+00
1.07199670e+00
1.06583032e+00
1.05875778e+00
1.05102906e+00
1.04202987e+00
1.03058754e+00
1.01686436e+00
9.98758338e-01
9.76334220e-01
9.51001762e-01
9.26520632e-01
9.09858981e-01
9.06202392e-01
9.25594834e-01
9.32911170e-01
9.26480968e-01
9.28027373e-01
9.41052035e-01
9.60059225e-01
9.80471238e-01
1.00177738e+00
1.02064317e+00
1.03760322e+00
1.05182802e+00
1.06409428e+00
1.07542498e+00
1.08587283e+00
1.09520799e+00
1.10293620e+00
1.10863129e+00
1.11251453e+00
1.11516172e+00
1.11738445e+00
1.11914409e+00
1.12064092e+00
1.12145740e+00
1.12129987e+00
1.12060947e+00
1.11920127e+00
1.11728369e+00
1.11499071e+00
1.11243217e+00
1.10968299e+00
1.10697182e+00
1.10440269e+00
1.10203660e+00
1.10003142e+00
1.09848491e+00
1.09729583e+00
1.09637819e+00
1.09566453e+00
1.09512662e+00
1.09469721e+00
1.09626035e+00
1.09882915e+00
1.10081719e+00
1.10264787e+00
1.10380333e+00
1.10431697e+00
1.10443581e+00
1.10412975e+00
1.10341998e+00
1.10235474e+00
1.10108835e+00
1.09971228e+00
1.09835821e+00
1.09712971e+00
1.09600844e+00
1.09494821e+00
1.09391902e+00
1.09289906e+00
1.09193692e+00
1.09094602e+00
1.08980432e+00
1.08859679e+00
1.08705292e+00
1.08503702e+00
1.08238719e+00
1.07898202e+00
1.07479333e+00
1.06996353e+00
1.06449884e+00
1.05831086e+00
1.05155032e+00
1.04283480e+00
1.03196035e+00
1.01775495e+00
9.98998458e-01
9.76644460e-01
9.52553389e-01
9.30723782e-01
9.17854082e-01
9.15469100e-01
9.34160760e-01
9.41789126e-01
9.37968285e-01
9.39147015e-01
9.49422170e-01
9.65031618e-01
9.82844715e-01
1.00228114e+00
1.01972204e+00
1.03534494e+00
1.04932754e+00
1.06216241e+00
1.07430265e+00
1.08562730e+00
1.09542406e+00
1.10317401e+00
1.10835300e+00
1.11153020e+00
1.11339567e+00
1.11470165e+00
1.11558349e+00
1.11622980e+00
1.11635781e+00
1.11620376e+00
1.11562491e+00
1.11467162e+00
1.11336764e+00
1.11177040e+00
1.10990840e+00
1.10780602e+00
1.10557258e+00
1.10340307e+00
1.10146602e+00
1.09973175e+00
1.09835787e+00
1.09730257e+00
1.09648213e+00
1.09581580e+00
1.09525181e+00
1.09473390e+00
1.09615906e+00
1.09874376e+00
1.10069999e+00
1.10251825e+00
1.10368617e+00
1.10422294e+00
1.10435039e+00
1.10409696e+00
1.10340058e+00
1.10233665e+00
1.10105451e+00
1.09959870e+00
1.09813181e+00
1.09673674e+00
1.09542585e+00
1.09416587e+00
1.09292431e+00
1.09170082e+00
1.09050111e+00
1.08919518e+00
1.08793047e+00
1.08647822e+00
1.08474086e+00
1.08257069e+00
1.07986276e+00
1.07657358e+00
1.07274413e+00
1.06850505e+00
1.06378597e+00
1.05847371e+00
1.05242247e+00
1.04393382e+00
1.03315112e+00
1.01818472e+00
9.98919717e-01
9.76803876e-01
9.53956150e-01
9.34325536e-01
9.23698384e-01
9.23244862e-01
9.40750084e-01
9.49284626e-01
9.47956455e-01
9.48879474e-01
9.57165338e-01
9.70500678e-01
9.86391818e-01
1.00342281e+00
1.01908144e+00
1.03345321e+00
1.04747607e+00
1.06093721e+00
1.07387788e+00
1.08581471e+00
1.09569857e+00
1.10302288e+00
1.10790729e+00
1.11080414e+00
1.11209213e+00
1.11237287e+00
1.11261281e+00
1.11213656e+00
1.11151787e+00
1.11098792e+00
1.11044397e+00
1.10984454e+00
1.10911946e+00
1.10818699e+00
1.10699151e+00
1.10553442e+00
1.10388083e+00
1.10218121e+00
1.10058803e+00
1.09923641e+00
1.09808765e+00
1.09723071e+00
1.09653073e+00
1.09590587e+00
1.09533051e+00
1.09474723e+00
1.09604535e+00
1.09865403e+00
1.10057577e+00
1.10237778e+00
1.10355776e+00
1.10411995e+00
1.10426301e+00
1.10406204e+00
1.10337780e+00
1.10233910e+00
1.10102542e+00
1.09949451e+00
1.09791372e+00
1.09636360e+00
1.09486653e+00
1.09341139e+00
1.09197454e+00
1.09055212e+00
1.08907685e+00
1.08766489e+00
1.08617661e+00
1.08453575e+00
1.08263037e+00
1.08034978e+00
1.07764760e+00
1.07455861e+00
1.07117435e+00
1.06753178e+00
1.06357897e+00
1.05909490e+00
1.05340556e+00
1.04518805e+00
1.03397474e+00
1.01830984e+00
9.98757710e-01
9.77060018e-01
9.55414499e-01
9.37614854e-01
9.28424281e-01
9.29087347e-01
9.45966171e-01
9.55270611e-01
9.56164654e-01
9.57355748e-01
9.65136850e-01
9.76872377e-01
9.90264106e-01
1.00430704e+00
1.01857050e+00
1.03213313e+00
1.04632331e+00
1.06048835e+00
1.07414115e+00
1.08616750e+00
1.09564950e+00
1.10248165e+00
1.10691918e+00
1.10915389e+00
1.10982007e+00
1.10984313e+00
1.10931589e+00
1.10852188e+00
1.10756438e+00
1.10648816e+00
1.10555329e+00
1.10507701e+00
1.10477099e+00
1.10438954e+00
1.10379110e+00
1.10293950e+00
1.10187529e+00
1.10069446e+00
1.09953463e+00
1.09851440e+00
1.09770073e+00
1.09707936e+00
1.09653569e+00
1.09596025e+00
1.09537540e+00
1.09474173e+00
1.09592028e+00
1.09856175e+00
1.10044886e+00
1.10223234e+00
1.10342247e+00
1.10400724e+00
1.10417173e+00
1.10401386e+00
1.10335097e+00
1.10235466e+00
1.10099214e+00
1.09939570e+00
1.09771177e+00
1.09600930e+00
1.09433338e+00
1.09269447e+00
1.09107796e+00
1.08942036e+00
1.08783384e+00
1.08623151e+00
1.08457005e+00
1.08276553e+00
1.08072232e+00
1.07837658e+00
1.07574805e+00
1.07294025e+00
1.07005351e+00
1.06705428e+00
1.06377604e+00
1.06000335e+00
1.05441922e+00
1.04632812e+00
1.03439180e+00
1.01814421e+00
9.98599005e-01
9.77489872e-01
9.57007986e-01
9.40702509e-01
9.32591211e-01
9.33409119e-01
9.49463080e-01
9.60457488e-01
9.63007402e-01
9.65640294e-01
9.72748772e-01
9.82627731e-01
9.93617049e-01
1.00527099e+00
1.01841409e+00
1.03152368e+00
1.04600606e+00
1.06093281e+00
1.07485302e+00
1.08641657e+00
1.09517594e+00
1.10135095e+00
1.10504958e+00
1.10673008e+00
1.10726057e+00
1.10693601e+00
1.10623329e+00
1.10512118e+00
1.10385641e+00
1.10264437e+00
1.10163440e+00
1.10084791e+00
1.10059002e+00
1.10052925e+00
1.10039139e+00
1.10007956e+00
1.09957994e+00
1.09894043e+00
1.09827167e+00
1.09768219e+00
1.09715933e+00
1.09682509e+00
1.09647183e+00
1.09596222e+00
1.09538411e+00
1.09471374e+00
1.09578505e+00
1.09846791e+00
1.10032165e+00
1.10208438e+00
1.10328120e+00
1.10388433e+00
1.10407180e+00
1.10394290e+00
1.10334038e+00
1.10235179e+00
1.10095369e+00
1.09930061e+00
1.09752023e+00
1.09567548e+00
1.09383449e+00
1.09202696e+00
1.09020685e+00
1.08843608e+00
1.08668299e+00
1.08492549e+00
1.08311368e+00
1.08116775e+00
1.07901745e+00
1.07665294e+00
1.07416836e+00
1.07171086e+00
1.06932770e+00
1.06696811e+00
1.06431662e+00
1.06105691e+00
1.05546512e+00
1.04710382e+00
1.03444552e+00
1.01784312e+00
9.98533064e-01
9.78165481e-01
9.58770110e-01
9.43648170e-01
9.36318332e-01
9.36846884e-01
9.51991076e-01
9.64701420e-01
9.68932201e-01
9.72902593e-01
9.79541101e-01
9.87794757e-01
9.96795420e-01
1.00661387e+00
1.01856617e+00
1.03185883e+00
1.04680242e+00
1.06207277e+00
1.07560191e+00
1.08624279e+00
1.09412193e+00
1.09941129e+00
1.10248478e+00
1.10395071e+00
1.10447768e+00
1.10415618e+00
1.10341607e+00
1.10224358e+00
1.10084339e+00
1.09950651e+00
1.09835879e+00
1.09751380e+00
1.09695303e+00
1.09688088e+00
1.09699323e+00
1.09709452e+00
1.09708987e+00
1.09697075e+00
1.09683382e+00
1.09669152e+00
1.09656575e+00
1.09645582e+00
1.09625788e+00
1.09586472e+00
1.09534068e+00
1.09467418e+00
1.09564088e+00
1.09837323e+00
1.10019615e+00
1.10193566e+00
1.10313380e+00
1.10375137e+00
1.10396049e+00
1.10384829e+00
1.10332226e+00
1.10233608e+00
1.10091131e+00
1.09920527e+00
1.09733339e+00
1.09536284e+00
1.09337593e+00
1.09140212e+00
1.08945601e+00
1.08754255e+00
1.08564771e+00
1.08375520e+00
1.08181087e+00
1.07974491e+00
1.07751946e+00
1.07518714e+00
1.07291682e+00
1.07085283e+00
1.06899190e+00
1.06716017e+00
1.06506955e+00
1.06209821e+00
1.05644198e+00
1.04747701e+00
1.03420867e+00
1.01748002e+00
9.98603332e-01
9.79053683e-01
9.60679093e-01
9.46496609e-01
9.39662581e-01
9.39700525e-01
9.53702575e-01
9.67942356e-01
9.73981674e-01
9.79118051e-01
9.85437711e-01
9.92354613e-01
9.99719801e-01
1.00821937e+00
1.01936359e+00
1.03311014e+00
1.04841301e+00
1.06346341e+00
1.07592174e+00
1.08550431e+00
1.09239882e+00
1.09694507e+00
1.09962057e+00
1.10097354e+00
1.10145958e+00
1.10120641e+00
1.10053352e+00
1.09948166e+00
1.09821818e+00
1.09685934e+00
1.09564929e+00
1.09469851e+00
1.09408924e+00
1.09376701e+00
1.09386029e+00
1.09416689e+00
1.09454006e+00
1.09488761e+00
1.09521305e+00
1.09551172e+00
1.09578428e+00
1.09594445e+00
1.09598718e+00
1.09572409e+00
1.09529712e+00
1.09464382e+00
1.09548846e+00
1.09827663e+00
1.10007163e+00
1.10178571e+00
1.10297979e+00
1.10360826e+00
1.10383088e+00
1.10373196e+00
1.10328470e+00
1.10229721e+00
1.10085955e+00
1.09911011e+00
1.09715542e+00
1.09507889e+00
1.09297667e+00
1.09086284e+00
1.08879817e+00
1.08675706e+00
1.08474353e+00
1.08273193e+00
1.08066953e+00
1.07850177e+00
1.07623361e+00
1.07398812e+00
1.07198354e+00
1.07033532e+00
1.06896103e+00
1.06760966e+00
1.06600911e+00
1.06299122e+00
1.05718394e+00
1.04753844e+00
1.03378642e+00
1.01708800e+00
9.98762067e-01
9.80066468e-01
9.62651740e-01
9.49233438e-01
9.42627290e-01
9.42231073e-01
9.54899570e-01
9.70297614e-01
9.78152330e-01
9.84364535e-01
9.90442280e-01
9.96254554e-01
1.00239328e+00
1.01014975e+00
1.02105487e+00
1.03513840e+00
1.05040867e+00
1.06459403e+00
1.07567751e+00
1.08412735e+00
1.09012613e+00
1.09412004e+00
1.09652486e+00
1.09779810e+00
1.09830785e+00
1.09815349e+00
1.09762599e+00
1.09679256e+00
1.09577513e+00
1.09459516e+00
1.09337181e+00
1.09238280e+00
1.09168778e+00
1.09135336e+00
1.09128818e+00
1.09159897e+00
1.09214644e+00
1.09279038e+00
1.09347957e+00
1.09417548e+00
1.09481719e+00
1.09526140e+00
1.09555572e+00
1.09552907e+00
1.09523766e+00
1.09464020e+00
1.09533002e+00
1.09818005e+00
1.09995070e+00
1.10163583e+00
1.10281835e+00
1.10344943e+00
1.10367712e+00
1.10360446e+00
1.10320467e+00
1.10223365e+00
1.10079617e+00
1.09901577e+00
1.09699251e+00
1.09482890e+00
1.09260597e+00
1.09041148e+00
1.08823817e+00
1.08609940e+00
1.08398640e+00
1.08186943e+00
1.07969953e+00
1.07744519e+00
1.07516419e+00
1.07305875e+00
1.07133936e+00
1.07010600e+00
1.06912128e+00
1.06822923e+00
1.06683910e+00
1.06382887e+00
1.05767946e+00
1.04731615e+00
1.03320339e+00
1.01667585e+00
9.98969585e-01
9.81146180e-01
9.64621553e-01
9.51830387e-01
9.45306336e-01
9.44584872e-01
9.55755310e-01
9.72009549e-01
9.81569018e-01
9.88712417e-01
9.94567462e-01
9.99538844e-01
1.00492331e+00
1.01245964e+00
1.02348733e+00
1.03770867e+00
1.05239048e+00
1.06510546e+00
1.07490380e+00
1.08219694e+00
1.08744218e+00
1.09103257e+00
1.09327038e+00
1.09450988e+00
1.09509649e+00
1.09508676e+00
1.09473477e+00
1.09415083e+00
1.09341968e+00
1.09249518e+00
1.09145306e+00
1.09046545e+00
1.08974304e+00
1.08939679e+00
1.08939875e+00
1.08959324e+00
1.09010134e+00
1.09084287e+00
1.09175349e+00
1.09273127e+00
1.09367841e+00
1.09445275e+00
1.09501797e+00
1.09520212e+00
1.09511524e+00
1.09464605e+00
1.09516219e+00
1.09807800e+00
1.09982738e+00
1.10148176e+00
1.10265118e+00
1.10327316e+00
1.10350395e+00
1.10345463e+00
1.10307427e+00
1.10213440e+00
1.10071828e+00
1.09892312e+00
1.09685321e+00
1.09463389e+00
1.09233780e+00
1.09005467e+00
1.08780295e+00
1.08558720e+00
1.08339005e+00
1.08117399e+00
1.07889866e+00
1.07656983e+00
1.07430740e+00
1.07238066e+00
1.07097541e+00
1.07002476e+00
1.06952492e+00
1.06898666e+00
1.06760984e+00
1.06444987e+00
1.05779754e+00
1.04681532e+00
1.03249082e+00
1.01624625e+00
9.99215657e-01
9.82264134e-01
9.66569602e-01
9.54310756e-01
9.47827499e-01
9.46806793e-01
9.56378153e-01
9.73318604e-01
9.84413451e-01
9.92269751e-01
9.97901415e-01
1.00234313e+00
1.00745427e+00
1.01519413e+00
1.02656010e+00
1.04051550e+00
1.05405902e+00
1.06501497e+00
1.07354401e+00
1.07987882e+00
1.08456503e+00
1.08786529e+00
1.08996652e+00
1.09114134e+00
1.09180385e+00
1.09199642e+00
1.09183478e+00
1.09153213e+00
1.09110804e+00
1.09048265e+00
1.08969902e+00
1.08890980e+00
1.08826031e+00
1.08788727e+00
1.08785951e+00
1.08809421e+00
1.08851237e+00
1.08922880e+00
1.09021119e+00
1.09134981e+00
1.09251583e+00
1.09357634e+00
1.09437842e+00
1.09477248e+00
1.09489060e+00
1.09459667e+00
1.09499166e+00
1.09796769e+00
1.09969833e+00
1.10131481e+00
1.10245866e+00
1.10306548e+00
1.10330046e+00
1.10327633e+00
1.10290596e+00
1.10200799e+00
1.10062575e+00
1.09884052e+00
1.09675044e+00
1.09447513e+00
1.09214438e+00
1.08980613e+00
1.08749828e+00
1.08521915e+00
1.08294412e+00
1.08063617e+00
1.07826619e+00
1.07588079e+00
1.07366434e+00
1.07191585e+00
1.07080956e+00
1.07015069e+00
1.07003955e+00
1.06973056e+00
1.06839895e+00
1.06480671e+00
1.05752631e+00
1.04610600e+00
1.03177273e+00
1.01589823e+00
9.99540569e-01
9.83407370e-01
9.68458275e-01
9.56665536e-01
9.50181863e-01
9.48858308e-01
9.56855797e-01
9.74347719e-01
9.86786079e-01
9.95138313e-01
1.00056948e+00
1.00479763e+00
1.01005908e+00
1.01832643e+00
1.03001403e+00
1.04327804e+00
1.05520434e+00
1.06444582e+00
1.07177616e+00
1.07738837e+00
1.08165200e+00
1.08466017e+00
1.08657572e+00
1.08768127e+00
1.08847843e+00
1.08885814e+00
1.08897647e+00
1.08894179e+00
1.08881491e+00
1.08852285e+00
1.08807127e+00
1.08755457e+00
1.08708502e+00
1.08676531e+00
1.08669366e+00
1.08688759e+00
1.08733540e+00
1.08803740e+00
1.08903075e+00
1.09021677e+00
1.09148029e+00
1.09270326e+00
1.09366367e+00
1.09427118e+00
1.09454445e+00
1.09445898e+00
1.09481867e+00
1.09785278e+00
1.09956660e+00
1.10114324e+00
1.10225911e+00
1.10284043e+00
1.10306950e+00
1.10304683e+00
1.10270544e+00
1.10185856e+00
1.10052078e+00
1.09876866e+00
1.09669519e+00
1.09441194e+00
1.09206807e+00
1.08971055e+00
1.08736828e+00
1.08503763e+00
1.08268718e+00
1.08028030e+00
1.07780394e+00
1.07535253e+00
1.07319392e+00
1.07164003e+00
1.07075829e+00
1.07046860e+00
1.07064546e+00
1.07035836e+00
1.06908961e+00
1.06495825e+00
1.05693773e+00
1.04520951e+00
1.03108076e+00
1.01568662e+00
9.99950664e-01
9.84512056e-01
9.70203342e-01
9.58816912e-01
9.52310593e-01
9.50706722e-01
9.57235434e-01
9.75075220e-01
9.88696333e-01
9.97409468e-01
1.00275774e+00
1.00709540e+00
1.01284541e+00
1.02177539e+00
1.03350556e+00
1.04560108e+00
1.05567837e+00
1.06353503e+00
1.06989530e+00
1.07487379e+00
1.07861112e+00
1.08125444e+00
1.08306000e+00
1.08429353e+00
1.08524094e+00
1.08581418e+00
1.08619583e+00
1.08640319e+00
1.08652601e+00
1.08655462e+00
1.08647634e+00
1.08628752e+00
1.08606354e+00
1.08589291e+00
1.08586986e+00
1.08605298e+00
1.08651953e+00
1.08726836e+00
1.08824871e+00
1.08941083e+00
1.09065365e+00
1.09189354e+00
1.09293195e+00
1.09370981e+00
1.09414947e+00
1.09423862e+00
1.09464595e+00
1.09772821e+00
1.09942259e+00
1.10095380e+00
1.10203136e+00
1.10260905e+00
1.10281174e+00
1.10276369e+00
1.10245889e+00
1.10168731e+00
1.10041812e+00
1.09872615e+00
1.09666850e+00
1.09443770e+00
1.09210911e+00
1.08975695e+00
1.08740760e+00
1.08505001e+00
1.08263698e+00
1.08011670e+00
1.07751085e+00
1.07499189e+00
1.07291106e+00
1.07154564e+00
1.07081879e+00
1.07092519e+00
1.07131063e+00
1.07098824e+00
1.06954882e+00
1.06484281e+00
1.05614163e+00
1.04422081e+00
1.03040445e+00
1.01554954e+00
1.00038346e+00
9.85507194e-01
9.71724177e-01
9.60701768e-01
9.54182904e-01
9.52396202e-01
9.57564325e-01
9.75547138e-01
9.90204368e-01
9.99212852e-01
1.00466259e+00
1.00938970e+00
1.01585758e+00
1.02539861e+00
1.03677475e+00