# vtk DataFile Version 3.0
anvil_cfd_result
ASCII
DATASET STRUCTURED_GRID
DIMENSIONS 81 31 1
POINTS 2511 double
0.00000000e+00 0.00000000e+00 0.0
2.50000000e-02 0.00000000e+00 0.0
5.00000000e-02 0.00000000e+00 0.0
7.50000000e-02 0.00000000e+00 0.0
1.00000000e-01 0.00000000e+00 0.0
1.25000000e-01 0.00000000e+00 0.0
1.50000000e-01 0.00000000e+00 0.0
1.75000000e-01 0.00000000e+00 0.0
2.00000000e-01 0.00000000e+00 0.0
2.25000000e-01 0.00000000e+00 0.0
2.50000000e-01 0.00000000e+00 0.0
2.75000000e-01 0.00000000e+00 0.0
3.00000000e-01 0.00000000e+00 0.0
3.25000000e-01 0.00000000e+00 0.0
3.50000000e-01 0.00000000e+00 0.0
3.75000000e-01 0.00000000e+00 0.0
4.00000000e-01 0.00000000e+00 0.0
4.25000000e-01 0.00000000e+00 0.0
4.50000000e-01 0.00000000e+00 0.0
4.75000000e-01 0.00000000e+00 0.0
5.00000000e-01 0.00000000e+00 0.0
5.25000000e-01 0.00000000e+00 0.0
5.50000000e-01 0.00000000e+00 0.0
5.75000000e-01 0.00000000e+00 0.0
6.00000000e-01 1.17992594e-17 0.0
6.25000000e-01 3.30769538e-03 0.0
6.50000000e-01 7.76956489e-03 0.0
6.75000000e-01 1.30335615e-02 0.0
7.00000000e-01 1.87219198e-02 0.0
7.25000000e-01 2.45540510e-02 0.0
7.50000000e-01 3.03713822e-02 0.0
7.75000000e-01 3.61070596e-02 0.0
8.00000000e-01 4.17466949e-02 0.0
8.25000000e-01 4.72997734e-02 0.0
8.50000000e-01 5.27834881e-02 0.0
8.75000000e-01 5.82151425e-02 0.0
9.00000000e-01 6.36092968e-02 0.0
9.25000000e-01 6.89771795e-02 0.0
9.50000000e-01 7.43270191e-02 0.0
9.75000000e-01 7.96646494e-02 0.0
1.00000000e+00 8.49941123e-02 0.0
1.02500000e+00 9.03181618e-02 0.0
1.05000000e+00 9.56386500e-02 0.0
1.07500000e+00 1.00956810e-01 0.0
1.10000000e+00 1.06273456e-01 0.0
1.12500000e+00 1.11589122e-01 0.0
1.15000000e+00 1.16904156e-01 0.0
1.17500000e+00 1.22218785e-01 0.0
1.20000000e+00 1.27533153e-01 0.0
1.22500000e+00 1.32847356e-01 0.0
1.25000000e+00 1.38161453e-01 0.0
1.27500000e+00 1.43475482e-01 0.0
1.30000000e+00 1.48789469e-01 0.0
1.32500000e+00 1.54103429e-01 0.0
1.35000000e+00 1.59417372e-01 0.0
1.37500000e+00 1.64731305e-01 0.0
1.40000000e+00 1.70045230e-01 0.0
1.42500000e+00 1.75359151e-01 0.0
1.45000000e+00 1.80673070e-01 0.0
1.47500000e+00 1.85986987e-01 0.0
1.50000000e+00 1.91300903e-01 0.0
1.52500000e+00 1.96614818e-01 0.0
1.55000000e+00 2.01928732e-01 0.0
1.57500000e+00 2.07242647e-01 0.0
1.60000000e+00 2.12556561e-01 0.0
1.62500000e+00 2.17870475e-01 0.0
1.65000000e+00 2.23184390e-01 0.0
1.67500000e+00 2.28498304e-01 0.0
1.70000000e+00 2.33812218e-01 0.0
1.72500000e+00 2.39126132e-01 0.0
1.75000000e+00 2.44440046e-01 0.0
1.77500000e+00 2.49753960e-01 0.0
1.80000000e+00 2.55067874e-01 0.0
1.82500000e+00 2.60381788e-01 0.0
1.85000000e+00 2.65695702e-01 0.0
1.87500000e+00 2.71009616e-01 0.0
1.90000000e+00 2.76323530e-01 0.0
1.92500000e+00 2.81637444e-01 0.0
1.95000000e+00 2.86951358e-01 0.0
1.97500000e+00 2.92265272e-01 0.0
2.00000000e+00 2.97579186e-01 0.0
0.00000000e+00 2.00000000e-02 0.0
2.50000000e-02 2.00000000e-02 0.0
5.00000000e-02 2.00000000e-02 0.0
7.50000000e-02 2.00000000e-02 0.0
1.00000000e-01 2.00000000e-02 0.0
1.25000000e-01 2.00000000e-02 0.0
1.50000000e-01 2.00000000e-02 0.0
1.75000000e-01 2.00000000e-02 0.0
2.00000000e-01 2.00000000e-02 0.0
2.25000000e-01 2.00000000e-02 0.0
2.50000000e-01 2.00000000e-02 0.0
2.75000000e-01 2.00000000e-02 0.0
3.00000000e-01 2.00000000e-02 0.0
3.25000000e-01 2.00000000e-02 0.0
3.50000000e-01 2.00000000e-02 0.0
3.75000000e-01 2.00000000e-02 0.0
4.00000000e-01 2.00000000e-02 0.0
4.25000000e-01 2.00000000e-02 0.0
4.50000000e-01 2.00000000e-02 0.0
4.75000000e-01 2.00000000e-02 0.0
5.00000000e-01 2.00000000e-02 0.0
5.25000000e-01 2.00000000e-02 0.0
5.50000000e-01 2.00000000e-02 0.0
5.75000000e-01 2.00000000e-02 0.0
6.00000000e-01 2.00000000e-02 0.0
6.25000000e-01 2.31974389e-02 0.0
6.50000000e-01 2.75105794e-02 0.0
6.75000000e-01 3.25991094e-02 0.0
7.00000000e-01 3.80978558e-02 0.0
7.25000000e-01 4.37355826e-02 0.0
7.50000000e-01 4.93590028e-02 0.0
7.75000000e-01 5.49034909e-02 0.0
8.00000000e-01 6.03551384e-02 0.0
8.25000000e-01 6.57231142e-02 0.0
8.50000000e-01 7.10240385e-02 0.0
8.75000000e-01 7.62746377e-02 0.0
9.00000000e-01 8.14889869e-02 0.0
9.25000000e-01 8.66779402e-02 0.0
9.50000000e-01 9.18494518e-02 0.0
9.75000000e-01 9.70091610e-02 0.0
1.00000000e+00 1.02160975e-01 0.0
1.02500000e+00 1.07307556e-01 0.0
1.05000000e+00 1.12450695e-01 0.0
1.07500000e+00 1.17591583e-01 0.0
1.10000000e+00 1.22731007e-01 0.0
1.12500000e+00 1.27869485e-01 0.0
1.15000000e+00 1.33007351e-01 0.0
1.17500000e+00 1.38144825e-01 0.0
1.20000000e+00 1.43282048e-01 0.0
1.22500000e+00 1.48419111e-01 0.0
1.25000000e+00 1.53556071e-01 0.0
1.27500000e+00 1.58692966e-01 0.0
1.30000000e+00 1.63829820e-01 0.0
1.32500000e+00 1.68966649e-01 0.0
1.35000000e+00 1.74103460e-01 0.0
1.37500000e+00 1.79240261e-01 0.0
1.40000000e+00 1.84377056e-01 0.0
1.42500000e+00 1.89513846e-01 0.0
1.45000000e+00 1.94650634e-01 0.0
1.47500000e+00 1.99787421e-01 0.0
1.50000000e+00 2.04924206e-01 0.0
1.52500000e+00 2.10060990e-01 0.0
1.55000000e+00 2.15197775e-01 0.0
1.57500000e+00 2.20334559e-01 0.0
1.60000000e+00 2.25471343e-01 0.0
1.62500000e+00 2.30608126e-01 0.0
1.65000000e+00 2.35744910e-01 0.0
1.67500000e+00 2.40881694e-01 0.0
1.70000000e+00 2.46018477e-01 0.0
1.72500000e+00 2.51155261e-01 0.0
1.75000000e+00 2.56292044e-01 0.0
1.77500000e+00 2.61428828e-01 0.0
1.80000000e+00 2.66565612e-01 0.0
1.82500000e+00 2.71702395e-01 0.0
1.85000000e+00 2.76839179e-01 0.0
1.87500000e+00 2.81975962e-01 0.0
1.90000000e+00 2.87112746e-01 0.0
1.92500000e+00 2.92249529e-01 0.0
1.95000000e+00 2.97386313e-01 0.0
1.97500000e+00 3.02523097e-01 0.0
2.00000000e+00 3.07659880e-01 0.0
0.00000000e+00 4.00000000e-02 0.0
2.50000000e-02 4.00000000e-02 0.0
5.00000000e-02 4.00000000e-02 0.0
7.50000000e-02 4.00000000e-02 0.0
1.00000000e-01 4.00000000e-02 0.0
1.25000000e-01 4.00000000e-02 0.0
1.50000000e-01 4.00000000e-02 0.0
1.75000000e-01 4.00000000e-02 0.0
2.00000000e-01 4.00000000e-02 0.0
2.25000000e-01 4.00000000e-02 0.0
2.50000000e-01 4.00000000e-02 0.0
2.75000000e-01 4.00000000e-02 0.0
3.00000000e-01 4.00000000e-02 0.0
3.25000000e-01 4.00000000e-02 0.0
3.50000000e-01 4.00000000e-02 0.0
3.75000000e-01 4.00000000e-02 0.0
4.00000000e-01 4.00000000e-02 0.0
4.25000000e-01 4.00000000e-02 0.0
4.50000000e-01 4.00000000e-02 0.0
4.75000000e-01 4.00000000e-02 0.0
5.00000000e-01 4.00000000e-02 0.0
5.25000000e-01 4.00000000e-02 0.0
5.50000000e-01 4.00000000e-02 0.0
5.75000000e-01 4.00000000e-02 0.0
6.00000000e-01 4.00000000e-02 0.0
6.25000000e-01 4.30871824e-02 0.0
6.50000000e-01 4.72515939e-02 0.0
6.75000000e-01 5.21646574e-02 0.0
7.00000000e-01 5.74737919e-02 0.0
7.25000000e-01 6.29171142e-02 0.0
7.50000000e-01 6.83466234e-02 0.0
7.75000000e-01 7.36999223e-02 0.0
8.00000000e-01 7.89635819e-02 0.0
8.25000000e-01 8.41464551e-02 0.0
8.50000000e-01 8.92645889e-02 0.0
8.75000000e-01 9.43341330e-02 0.0
9.00000000e-01 9.93686770e-02 0.0
9.25000000e-01 1.04378701e-01 0.0
9.50000000e-01 1.09371885e-01 0.0
9.75000000e-01 1.14353673e-01 0.0
1.00000000e+00 1.19327838e-01 0.0
1.02500000e+00 1.24296951e-01 0.0
1.05000000e+00 1.29262740e-01 0.0
1.07500000e+00 1.34226356e-01 0.0
1.10000000e+00 1.39188559e-01 0.0
1.12500000e+00 1.44149847e-01 0.0
1.15000000e+00 1.49110546e-01 0.0
1.17500000e+00 1.54070866e-01 0.0
1.20000000e+00 1.59030943e-01 0.0
1.22500000e+00 1.63990866e-01 0.0
1.25000000e+00 1.68950689e-01 0.0
1.27500000e+00 1.73910450e-01 0.0
1.30000000e+00 1.78870171e-01 0.0
1.32500000e+00 1.83829868e-01 0.0
1.35000000e+00 1.88789548e-01 0.0
1.37500000e+00 1.93749218e-01 0.0
1.40000000e+00 1.98708882e-01 0.0
1.42500000e+00 2.03668541e-01 0.0
1.45000000e+00 2.08628199e-01 0.0
1.47500000e+00 2.13587854e-01 0.0
1.50000000e+00 2.18547509e-01 0.0
1.52500000e+00 2.23507163e-01 0.0
1.55000000e+00 2.28466817e-01 0.0
1.57500000e+00 2.33426470e-01 0.0
1.60000000e+00 2.38386124e-01 0.0
1.62500000e+00 2.43345777e-01 0.0
1.65000000e+00 2.48305430e-01 0.0
1.67500000e+00 2.53265083e-01 0.0
1.70000000e+00 2.58224737e-01 0.0
1.72500000e+00 2.63184390e-01 0.0
1.75000000e+00 2.68144043e-01 0.0
1.77500000e+00 2.73103696e-01 0.0
1.80000000e+00 2.78063349e-01 0.0
1.82500000e+00 2.83023002e-01 0.0
1.85000000e+00 2.87982655e-01 0.0
1.87500000e+00 2.92942308e-01 0.0
1.90000000e+00 2.97901961e-01 0.0
1.92500000e+00 3.02861615e-01 0.0
1.95000000e+00 3.07821268e-01 0.0
1.97500000e+00 3.12780921e-01 0.0
2.00000000e+00 3.17740574e-01 0.0
0.00000000e+00 6.00000000e-02 0.0
2.50000000e-02 6.00000000e-02 0.0
5.00000000e-02 6.00000000e-02 0.0
7.50000000e-02 6.00000000e-02 0.0
1.00000000e-01 6.00000000e-02 0.0
1.25000000e-01 6.00000000e-02 0.0
1.50000000e-01 6.00000000e-02 0.0
1.75000000e-01 6.00000000e-02 0.0
2.00000000e-01 6.00000000e-02 0.0
2.25000000e-01 6.00000000e-02 0.0
2.50000000e-01 6.00000000e-02 0.0
2.75000000e-01 6.00000000e-02 0.0
3.00000000e-01 6.00000000e-02 0.0
3.25000000e-01 6.00000000e-02 0.0
3.50000000e-01 6.00000000e-02 0.0
3.75000000e-01 6.00000000e-02 0.0
4.00000000e-01 6.00000000e-02 0.0
4.25000000e-01 6.00000000e-02 0.0
4.50000000e-01 6.00000000e-02 0.0
4.75000000e-01 6.00000000e-02 0.0
5.00000000e-01 6.00000000e-02 0.0
5.25000000e-01 6.00000000e-02 0.0
5.50000000e-01 6.00000000e-02 0.0
5.75000000e-01 6.00000000e-02 0.0
6.00000000e-01 6.00000000e-02 0.0
6.25000000e-01 6.29769258e-02 0.0
6.50000000e-01 6.69926084e-02 0.0
6.75000000e-01 7.17302053e-02 0.0
7.00000000e-01 7.68497279e-02 0.0
7.25000000e-01 8.20986459e-02 0.0
7.50000000e-01 8.73342440e-02 0.0
7.75000000e-01 9.24963536e-02 0.0
8.00000000e-01 9.75720255e-02 0.0
8.25000000e-01 1.02569796e-01 0.0
8.50000000e-01 1.07505139e-01 0.0
8.75000000e-01 1.12393628e-01 0.0
9.00000000e-01 1.17248367e-01 0.0
9.25000000e-01 1.22079462e-01 0.0
9.50000000e-01 1.26894317e-01 0.0
9.75000000e-01 1.31698184e-01 0.0
1.00000000e+00 1.36494701e-01 0.0
1.02500000e+00 1.41286346e-01 0.0
1.05000000e+00 1.46074785e-01 0.0
1.07500000e+00 1.50861129e-01 0.0
1.10000000e+00 1.55646110e-01 0.0
1.12500000e+00 1.60430210e-01 0.0
1.15000000e+00 1.65213741e-01 0.0
[...]
CELL_DATA 2400
SCALARS rho double 1
LOOKUP_TABLE default
1.17659149e+00
1.17659149e+00
1.17659149e+00
1.17659149e+00
1.17659149e+00
1.17659149e+00
1.17659149e+00
1.17659149e+00
1.17659149e+00
1.17659149e+00
1.17659149e+00
1.17659149e+00
1.17659149e+00
1.17659149e+00
1.17659149e+00
1.17659149e+00
1.17659149e+00
1.17659149e+00
1.17659149e+00
1.17659149e+00
1.17659149e+00
1.17659149e+00
1.17659149e+00
1.17659149e+00
1.30891624e+00
1.52192898e+00
1.74329550e+00
1.91168027e+00
2.00998148e+00
2.03814837e+00
2.03298951e+00
2.01945848e+00
2.00156892e+00
1.98478180e+00
1.97501231e+00
1.96843840e+00
1.96243610e+00
1.95633897e+00
1.95639266e+00
1.95564011e+00
1.95280115e+00
1.94928301e+00
1.94816251e+00
1.94906790e+00
1.95074074e+00
1.95140195e+00
1.95080413e+00
1.94947807e+00
1.94904730e+00
1.94938592e+00
1.95026029e+00
1.95113330e+00
1.95164371e+00
1.95155707e+00
1.95124449e+00
1.95097651e+00
1.95082317e+00
1.95079878e+00
1.95081685e+00
1.95084797e+00
1.95092974e+00
1.95113915e+00
1.95135851e+00
1.95141459e+00
1.95137607e+00
1.95129503e+00
1.95132934e+00
1.95145311e+00
1.95162893e+00
1.95173828e+00
1.95177260e+00
1.95176140e+00
1.95168017e+00
1.95153715e+00
1.95139605e+00
1.95124120e+00
1.95063186e+00
1.95103219e+00
1.96575987e+00
2.44510424e+00
1.17659149e+00
1.17659149e+00
1.17659149e+00
1.17659149e+00
1.17659149e+00
1.17659149e+00
1.17659149e+00
1.17659149e+00
1.17659149e+00
1.17659149e+00
1.17659149e+00
1.17659149e+00
1.17659149e+00
1.17659149e+00
1.17659149e+00
1.17659149e+00
1.17659149e+00
1.17659149e+00
1.17659149e+00
1.17659149e+00
1.17659149e+00
1.17659149e+00
1.17659149e+00
1.17659149e+00
1.19975038e+00
1.28088465e+00
1.44480572e+00
1.67165905e+00
1.88372539e+00
1.99910212e+00
2.04703207e+00
2.04494774e+00
2.03665753e+00
2.02136312e+00
2.00683099e+00
1.99464563e+00
1.98636567e+00
1.98112328e+00
1.97709377e+00
1.97165180e+00
1.96787937e+00
1.96840244e+00
1.96909218e+00
1.96920415e+00
1.96884348e+00
1.96783537e+00
1.96622670e+00
1.96463944e+00
1.96397181e+00
1.96431395e+00
1.96496826e+00
1.96514769e+00
1.96501187e+00
1.96449355e+00
1.96385893e+00
1.96330426e+00
1.96279111e+00
1.96243992e+00
1.96224898e+00
1.96203433e+00
1.96181728e+00
1.96166844e+00
1.96150911e+00
1.96128055e+00
1.96101642e+00
1.96073465e+00
1.96048143e+00
1.96023926e+00
1.95996040e+00
1.95956015e+00
1.95917123e+00
1.95882254e+00
1.95847126e+00
1.95810072e+00
1.95770671e+00
1.95732462e+00
1.95668394e+00
1.96045695e+00
2.01376592e+00
2.63202470e+00
1.17659149e+00
1.17659149e+00
1.17659149e+00
1.17659149e+00
1.17659149e+00
1.17659149e+00
1.17659149e+00
1.17659149e+00
1.17659149e+00
1.17659149e+00
1.17659149e+00
1.17659149e+00
1.17659149e+00
1.17659149e+00
1.17659149e+00
1.17659149e+00
1.17659149e+00
1.17659149e+00
1.17659149e+00
1.17659149e+00
1.17659149e+00
1.17659149e+00
1.17659149e+00
1.17659149e+00
1.17747430e+00
1.18427192e+00
1.21365686e+00
1.30714915e+00
1.50807569e+00
1.77083115e+00
1.98782598e+00
2.01699586e+00
2.03851210e+00
2.03683553e+00
2.02847295e+00
2.01211117e+00
1.99929656e+00
1.99036755e+00
1.98098260e+00
1.97235115e+00
1.97257309e+00
1.97371229e+00
1.97632543e+00
1.97621906e+00
1.97491509e+00
1.97290897e+00
1.97095650e+00
1.97067059e+00
1.97130212e+00
1.97241072e+00
1.97299231e+00
1.97290592e+00
1.97254860e+00
1.97184359e+00
1.97105241e+00
1.97053899e+00
1.97023777e+00
1.96998811e+00
1.96978242e+00
1.96967261e+00
1.96959883e+00
1.96958601e+00
1.96963295e+00
1.96968684e+00
1.96968785e+00
1.96966365e+00
1.96947405e+00
1.96947179e+00
1.96958288e+00
1.96961402e+00
1.96938246e+00
1.96882310e+00
1.96813811e+00
1.96747289e+00
1.96685795e+00
1.96629700e+00
1.96726004e+00
1.98185247e+00
2.13572851e+00
2.80732264e+00
1.17659149e+00
1.17659149e+00
1.17659149e+00
1.17659149e+00
1.17659149e+00
1.17659149e+00
1.17659149e+00
1.17659149e+00
1.17659149e+00
1.17659149e+00
1.17659149e+00
1.17659149e+00
1.17659149e+00
1.17659149e+00
1.17659149e+00
1.17659149e+00
1.17659149e+00
1.17659149e+00
1.17659149e+00
1.17659149e+00
1.17659149e+00
1.17659149e+00
1.17659149e+00
1.17659149e+00
1.17659999e+00
1.17672559e+00
1.17773863e+00
1.18445637e+00
1.22061443e+00
1.35485801e+00
1.62249644e+00
1.87543751e+00
2.03249246e+00
2.03346294e+00
2.02908983e+00
2.02304787e+00
2.01201555e+00
1.99697291e+00
1.98153237e+00
1.97720386e+00
1.97821013e+00
1.97698545e+00
1.97441336e+00
1.97117292e+00
1.96865061e+00
1.96708683e+00
1.96758603e+00
1.96866541e+00
1.96995459e+00
1.97073177e+00
1.97107255e+00
1.97093516e+00
1.97055373e+00
1.96998499e+00
1.96949167e+00
1.96933416e+00
1.96939500e+00
1.96944383e+00
1.96948254e+00
1.96957210e+00
1.96963967e+00
1.96962970e+00
1.96960020e+00
1.96962911e+00
1.96974106e+00
1.96991627e+00
1.97021246e+00
1.97043549e+00
1.97056334e+00
1.97066415e+00
1.97054151e+00
1.97018840e+00
1.96969776e+00
1.96917791e+00
1.96872000e+00
1.96875389e+00
1.97187391e+00
2.03467558e+00
2.36571337e+00
2.96919657e+00
1.17659149e+00
1.17659149e+00
1.17659149e+00
1.17659149e+00
1.17659149e+00
1.17659149e+00
1.17659149e+00
1.17659149e+00
1.17659149e+00
1.17659149e+00
1.17659149e+00
1.17659149e+00
1.17659149e+00
1.17659149e+00
1.17659149e+00
1.17659149e+00
1.17659149e+00
1.17659149e+00
1.17659149e+00
1.17659149e+00
1.17659149e+00
1.17659149e+00
1.17659149e+00
1.17659149e+00
1.17659151e+00
1.17659206e+00
1.17659958e+00
1.17668956e+00
1.17774249e+00
1.18839560e+00
1.25741296e+00
1.47401852e+00
1.77247858e+00
1.94061399e+00
2.01348597e+00
2.02670776e+00
2.01342507e+00
1.99763224e+00
1.98980558e+00
1.98917302e+00
1.98510602e+00
1.97797190e+00
1.96957726e+00
1.96399205e+00
1.96305869e+00
1.96403849e+00
1.96653385e+00
1.96810137e+00
1.96745920e+00
1.96634475e+00
1.96542800e+00
1.96492634e+00
1.96492308e+00
1.96494158e+00
1.96507214e+00
1.96536390e+00
1.96571337e+00
1.96621894e+00
1.96695850e+00
1.96773265e+00
1.96813490e+00
1.96817099e+00
1.96808683e+00
1.96808395e+00
1.96822250e+00
1.96853906e+00
1.96902633e+00
1.96955877e+00
1.97003620e+00
1.97009402e+00
1.96987515e+00
1.96940569e+00
1.96872485e+00
1.96797626e+00
1.96776770e+00
1.96864773e+00
1.98870084e+00
2.17726359e+00
2.65146638e+00
3.05492221e+00
1.17659149e+00
1.17659149e+00
1.17659149e+00
1.17659149e+00
1.17659149e+00
1.17659149e+00
1.17659149e+00
1.17659149e+00
1.17659149e+00
1.17659149e+00
1.17659149e+00
1.17659149e+00
1.17659149e+00
1.17659149e+00
1.17659149e+00
1.17659149e+00
1.17659149e+00
1.17659149e+00
1.17659149e+00
1.17659149e+00
1.17659149e+00
1.17659149e+00
1.17659149e+00
1.17659149e+00
1.17659149e+00
1.17659149e+00
1.17659150e+00
1.17659175e+00
1.17659760e+00
1.17674067e+00
1.17949161e+00
1.20945512e+00
1.35586782e+00
1.64549583e+00
1.90547353e+00
1.99489985e+00
1.99804820e+00
2.00970825e+00
2.01168564e+00
2.00282541e+00
1.98761740e+00
1.97435115e+00
1.96394736e+00
1.96208303e+00
1.96352119e+00
1.96619807e+00
1.96735457e+00
1.96652357e+00
1.96459446e+00
1.96310431e+00
1.96284288e+00
1.96306231e+00
1.96338089e+00
1.96353376e+00
1.96342067e+00
1.96333113e+00
1.96346437e+00
1.96375264e+00
1.96419400e+00
1.96471206e+00
1.96527114e+00
1.96545727e+00
1.96548102e+00
1.96547040e+00
1.96555534e+00
1.96578861e+00
1.96617274e+00
1.96675962e+00
1.96729760e+00
1.96759157e+00
1.96744562e+00
1.96711599e+00
1.96655283e+00
1.96616134e+00
1.96638093e+00
1.97176440e+00
2.05275988e+00
2.42988951e+00
2.88007753e+00
3.08682373e+00
1.17659149e+00
1.17659149e+00
1.17659149e+00
1.17659149e+00
1.17659149e+00
1.17659149e+00
1.17659149e+00
1.17659149e+00
1.17659149e+00
1.17659149e+00
1.17659149e+00
1.17659149e+00
1.17659149e+00
1.17659149e+00
1.17659149e+00
1.17659149e+00
1.17659149e+00
1.17659149e+00
1.17659149e+00
1.17659149e+00
1.17659149e+00
1.17659149e+00
1.17659149e+00
1.17659149e+00
1.17659149e+00
1.17659149e+00
1.17659149e+00
1.17659149e+00
1.17659150e+00
1.17659188e+00
1.17661241e+00
1.17730954e+00
1.18923055e+00
1.27526626e+00
1.52397779e+00
1.80731411e+00
1.97092248e+00
2.03845421e+00
2.02427253e+00
2.00374033e+00
1.98732288e+00
1.97736087e+00
1.97322389e+00
1.97223420e+00
1.97261383e+00
1.97194000e+00
1.96971605e+00
1.96625476e+00
1.96376993e+00
1.96248285e+00
1.96238963e+00
1.96250540e+00
1.96258087e+00
1.96263505e+00
1.96264491e+00
1.96260702e+00
1.96259832e+00
1.96267452e+00
1.96304218e+00
1.96382587e+00
1.96444021e+00
1.96458657e+00
1.96451823e+00
1.96416562e+00
1.96407793e+00
1.96409346e+00
1.96411197e+00
1.96439012e+00
1.96477706e+00
1.96470353e+00
1.96456488e+00
1.96436621e+00
1.96406830e+00
1.96389966e+00
1.96531231e+00
1.99325435e+00
2.22261751e+00
2.72060343e+00
2.99863865e+00
3.08578543e+00
1.17659149e+00
1.17659149e+00
1.17659149e+00
1.17659149e+00
1.17659149e+00
1.17659149e+00
1.17659149e+00
1.17659149e+00
1.17659149e+00
1.17659149e+00
1.17659149e+00
1.17659149e+00
1.17659149e+00
1.17659149e+00
1.17659149e+00
1.17659149e+00
1.17659149e+00
1.17659149e+00
1.17659149e+00
1.17659149e+00
1.17659149e+00
1.17659149e+00
1.17659149e+00
1.17659149e+00
1.17659149e+00
1.17659149e+00
1.17659149e+00
1.17659149e+00
1.17659149e+00
1.17659149e+00
1.17659152e+00
1.17659491e+00
1.17677695e+00
1.18124462e+00
1.22736527e+00
1.41520103e+00
1.71503833e+00
1.93626279e+00
1.97185999e+00
1.99564257e+00
1.99798556e+00
1.99343859e+00
1.98565025e+00
1.98071948e+00
1.97633012e+00
1.97103382e+00
1.96638872e+00
1.96417319e+00
1.96444006e+00
1.96482329e+00
1.96433021e+00
1.96364674e+00
1.96341651e+00
1.96333381e+00
1.96321499e+00
1.96287206e+00
1.96271404e+00
1.96273236e+00
1.96299867e+00
1.96365672e+00
1.96414898e+00
1.96418805e+00
1.96395768e+00
1.96343863e+00
1.96316514e+00
1.96299675e+00
1.96298750e+00
1.96328886e+00
1.96362757e+00
1.96361663e+00
1.96350260e+00
1.96332285e+00
1.96281357e+00
1.96306264e+00
1.97131205e+00
2.08265851e+00
2.50172635e+00
2.93764029e+00
3.03636935e+00
3.07852832e+00
1.17659149e+00
1.17659149e+00
1.17659149e+00
1.17659149e+00
1.17659149e+00
1.17659149e+00
1.17659149e+00
1.17659149e+00
1.17659149e+00
1.17659149e+00
1.17659149e+00
1.17659149e+00
1.17659149e+00
1.17659149e+00
1.17659149e+00
1.17659149e+00
1.17659149e+00
1.17659149e+00
1.17659149e+00
1.17659149e+00
1.17659149e+00
1.17659149e+00
1.17659149e+00
1.17659149e+00
1.17659149e+00
1.17659149e+00
1.17659149e+00
1.17659149e+00
1.17659149e+00
1.17659149e+00
1.17659149e+00
1.17659149e+00
1.17659212e+00
1.17664080e+00
1.17825046e+00
1.20134002e+00
1.33286547e+00
1.61537106e+00
1.88094435e+00
2.01772193e+00
2.01404139e+00
2.00479477e+00
1.99225149e+00
1.98251115e+00
1.97492018e+00
1.96785927e+00
1.96577168e+00
1.96680003e+00
1.96753882e+00
1.96684572e+00
1.96500430e+00
1.96372633e+00
1.96372466e+00
1.96390474e+00
1.96396634e+00
1.96367763e+00
1.96323859e+00
1.96309913e+00
1.96324515e+00
1.96372739e+00
1.96413855e+00
1.96416255e+00
1.96391970e+00
1.96321228e+00
1.96269291e+00
1.96251577e+00
1.96252616e+00
1.96277920e+00
1.96295190e+00
1.96296401e+00
1.96297538e+00
1.96288991e+00
1.96264416e+00
1.96473509e+00
2.00890558e+00
2.29717053e+00
2.78730085e+00
3.04566248e+00
3.05141516e+00
3.06734441e+00
1.17659149e+00
1.17659149e+00
1.17659149e+00
1.17659149e+00
1.17659149e+00
1.17659149e+00
1.17659149e+00
1.17659149e+00
1.17659149e+00
1.17659149e+00
1.17659149e+00
1.17659149e+00
1.17659149e+00
1.17659149e+00
1.17659149e+00
1.17659149e+00
1.17659149e+00
1.17659149e+00
1.17659149e+00
1.17659149e+00
1.17659149e+00
1.17659149e+00
1.17659149e+00
1.17659149e+00
1.17659149e+00
1.17659149e+00
1.17659149e+00
1.17659149e+00
1.17659149e+00
1.17659149e+00
1.17659149e+00
1.17659149e+00
1.17659149e+00
1.17659162e+00
1.17660454e+00
1.17718603e+00
1.18853639e+00
1.27395549e+00
1.52810072e+00
1.82116050e+00
1.94106529e+00
1.98627016e+00
1.98982776e+00
1.98595021e+00
1.97849327e+00
1.97466243e+00
1.97318285e+00
1.97160494e+00
1.96831203e+00
1.96475035e+00
1.96276884e+00
1.96321428e+00
1.96429735e+00
1.96483206e+00
1.96492223e+00
1.96469417e+00
1.96411261e+00
1.96369585e+00
1.96368135e+00
1.96397859e+00
1.96410323e+00
1.96403696e+00
1.96374836e+00
1.96314681e+00
1.96269334e+00
1.96254388e+00
1.96253718e+00
1.96260940e+00
1.96269411e+00
1.96274404e+00
1.96290614e+00
1.96289364e+00
1.96336895e+00
1.97851676e+00
2.13920460e+00
2.60393585e+00
2.96366993e+00
3.08629404e+00
3.06314909e+00
3.06257733e+00
1.17659149e+00
1.17659149e+00
1.17659149e+00
1.17659149e+00
1.17659149e+00
1.17659149e+00
1.17659149e+00
1.17659149e+00
1.17659149e+00
1.17659149e+00
1.17659149e+00
1.17659149e+00
1.17659149e+00
1.17659149e+00
1.17659149e+00
1.17659149e+00
1.17659149e+00
1.17659149e+00
1.17659149e+00
1.17659149e+00
1.17659149e+00
1.17659149e+00
1.17659149e+00
1.17659149e+00
1.17659149e+00
1.17659149e+00
1.17659149e+00
1.17659149e+00
1.17659149e+00
1.17659149e+00
1.17659149e+00
1.17659149e+00
1.17659149e+00
1.17659149e+00
1.17659152e+00
1.17659516e+00
1.17681863e+00
1.18223968e+00
1.23752873e+00
1.44902731e+00
1.75627624e+00
1.95701897e+00
1.97956672e+00
1.99215257e+00
1.99183850e+00
1.98761852e+00
1.98040354e+00
1.97138472e+00
1.96338182e+00
1.96036220e+00
1.96146346e+00
1.96338511e+00
1.96494643e+00
1.96530153e+00
1.96542235e+00
1.96536874e+00
1.96503059e+00
1.96464670e+00
1.96454820e+00
1.96453775e+00
1.96443081e+00
1.96418992e+00
1.96373004e+00
1.96326797e+00
1.96300175e+00
1.96291684e+00
1.96286396e+00
1.96286059e+00
1.96290943e+00
1.96299010e+00
1.96307931e+00
1.96319830e+00
1.96780194e+00
2.04244276e+00
2.40398391e+00
2.87278773e+00
3.03104638e+00
3.09011482e+00
3.07491213e+00
3.06328547e+00
1.17659149e+00
1.17659149e+00
1.17659149e+00
1.17659149e+00
1.17659149e+00
1.17659149e+00
1.17659149e+00
1.17659149e+00
1.17659149e+00
1.17659149e+00
1.17659149e+00
1.17659149e+00
1.17659149e+00
1.17659149e+00
1.17659149e+00
1.17659149e+00
1.17659149e+00
1.17659149e+00
1.17659149e+00
1.17659149e+00
1.17659149e+00
1.17659149e+00
1.17659149e+00
1.17659149e+00
1.17659149e+00
1.17659149e+00
1.17659149e+00
1.17659149e+00
1.17659149e+00
1.17659149e+00
1.17659149e+00
1.17659149e+00
1.17659149e+00
1.17659149e+00
1.17659149e+00
1.17659150e+00
1.17659268e+00
1.17667894e+00
1.17937435e+00
1.21419130e+00
1.38453410e+00
1.68466395e+00
1.90760333e+00
2.00268554e+00
2.00028040e+00
1.99270190e+00
1.98246521e+00
1.96997381e+00
1.96421759e+00
1.96462500e+00
1.96621565e+00
1.96572043e+00
1.96497652e+00
1.96507335e+00
1.96538585e+00
1.96565148e+00
1.96558510e+00
1.96543202e+00
1.96524658e+00
1.96504241e+00
1.96474552e+00
1.96444268e+00
1.96414894e+00
1.96394725e+00
1.96377422e+00
1.96367994e+00
1.96361978e+00
1.96360762e+00
1.96353913e+00
1.96329234e+00
1.96320451e+00
1.96456415e+00
1.99479784e+00
2.23103735e+00
2.72009682e+00
3.02169565e+00
3.04719822e+00
3.07896704e+00
3.07746106e+00
3.06806236e+00
1.17659149e+00
1.17659149e+00
1.17659149e+00
1.17659149e+00
1.17659149e+00
1.17659149e+00
1.17659149e+00
1.17659149e+00
1.17659149e+00
1.17659149e+00
1.17659149e+00
1.17659149e+00
1.17659149e+00
1.17659149e+00
1.17659149e+00
1.17659149e+00
1.17659149e+00
1.17659149e+00
1.17659149e+00
1.17659149e+00
1.17659149e+00
1.17659149e+00
1.17659149e+00
1.17659149e+00
1.17659149e+00
1.17659149e+00
1.17659149e+00
1.17659149e+00
1.17659149e+00
1.17659149e+00
1.17659149e+00
1.17659149e+00
1.17659149e+00
1.17659149e+00
1.17659149e+00
1.17659149e+00
1.17659149e+00
1.17659188e+00
1.17662715e+00
1.17799194e+00
1.19998137e+00
1.33063192e+00
1.62688308e+00
1.87780492e+00
1.95187812e+00
1.98412619e+00
1.98199692e+00
1.97673271e+00
1.97515258e+00
1.97515647e+00
1.97161852e+00
1.96612187e+00
1.96557099e+00
1.96614389e+00
1.96663020e+00
1.96645196e+00
1.96604407e+00
1.96585738e+00
1.96567157e+00
1.96550192e+00
1.96520905e+00
1.96488808e+00
1.96479814e+00
1.96473116e+00
1.96457186e+00
1.96441734e+00
1.96429702e+00
1.96420650e+00
1.96402395e+00
1.96360013e+00
1.96397291e+00
1.97495885e+00
2.10595754e+00
2.54402432e+00
2.94048568e+00
3.07820150e+00
3.06226564e+00
3.06657588e+00
3.07496379e+00
3.07208063e+00
1.17659149e+00
1.17659149e+00
1.17659149e+00
1.17659149e+00
1.17659149e+00
1.17659149e+00
1.17659149e+00
1.17659149e+00
1.17659149e+00
1.17659149e+00
1.17659149e+00
1.17659149e+00
1.17659149e+00
1.17659149e+00
1.17659149e+00
1.17659149e+00
1.17659149e+00
1.17659149e+00
1.17659149e+00
1.17659149e+00
1.17659149e+00
1.17659149e+00
1.17659149e+00
1.17659149e+00
1.17659149e+00
1.17659149e+00
1.17659149e+00
1.17659149e+00
1.17659149e+00
1.17659149e+00
1.17659149e+00
1.17659149e+00
1.17659149e+00
1.17659149e+00
1.17659149e+00
1.17659149e+00
1.17659149e+00
1.17659149e+00
1.17659163e+00
1.17660696e+00
1.17732851e+00
1.19099389e+00
1.29444578e+00
1.56757485e+00
1.84583593e+00
1.98882854e+00
1.98703305e+00
1.99083801e+00
1.98877710e+00
1.98244854e+00
1.97211632e+00
1.96676759e+00
1.96741391e+00
1.96775795e+00
1.96728745e+00
1.96579218e+00
1.96509171e+00
1.96512124e+00
1.96528214e+00
1.96553912e+00
1.96554094e+00
1.96546215e+00
1.96550183e+00
1.96542245e+00
1.96512602e+00
1.96479829e+00
1.96460651e+00
1.96448569e+00
1.96408663e+00
1.96417659e+00
1.96786093e+00
2.03113124e+00
2.36654224e+00
2.84340274e+00
3.03200304e+00
3.09128633e+00
3.07322905e+00
3.06451129e+00
3.07128587e+00
3.07262752e+00
1.17659149e+00
1.17659149e+00
1.17659149e+00
1.17659149e+00
1.17659149e+00
1.17659149e+00
1.17659149e+00
1.17659149e+00
1.17659149e+00
1.17659149e+00
1.17659149e+00
1.17659149e+00
1.17659149e+00
1.17659149e+00
1.17659149e+00
1.17659149e+00
1.17659149e+00
1.17659149e+00
1.17659149e+00
1.17659149e+00
1.17659149e+00
1.17659149e+00
1.17659149e+00
1.17659149e+00
1.17659149e+00
1.17659149e+00
1.17659149e+00
1.17659149e+00
1.17659149e+00
1.17659149e+00
1.17659149e+00
1.17659149e+00
1.17659149e+00
1.17659149e+00
1.17659149e+00
1.17659149e+00
1.17659149e+00
1.17659149e+00
1.17659149e+00
1.17659154e+00
1.17659874e+00
1.17699031e+00
1.18611140e+00
1.26612769e+00
1.52194953e+00
1.80817496e+00
1.93373350e+00
1.99495293e+00
1.98901089e+00
1.98151399e+00
1.97615072e+00
1.97258208e+00
1.97058981e+00
1.96870331e+00
1.96704749e+00
1.96559947e+00
1.96509967e+00
1.96514575e+00
1.96545582e+00
1.96583209e+00
1.96612878e+00
1.96616553e+00
1.96609377e+00
1.96575039e+00
1.96527149e+00
1.96487140e+00
1.96460297e+00
1.96444453e+00
1.96431157e+00
1.96544812e+00
1.99298953e+00
2.21658194e+00
2.70079753e+00
3.00930262e+00
3.04661463e+00
3.08228183e+00
3.07863011e+00
3.06844397e+00
3.06921982e+00
3.07203998e+00
1.17659149e+00
1.17659149e+00
1.17659149e+00
1.17659149e+00
1.17659149e+00
1.17659149e+00
1.17659149e+00
1.17659149e+00
1.17659149e+00
1.17659149e+00
1.17659149e+00
1.17659149e+00
1.17659149e+00
1.17659149e+00
1.17659149e+00
1.17659149e+00
1.17659149e+00
1.17659149e+00
1.17659149e+00
1.17659149e+00
1.17659149e+00
1.17659149e+00
1.17659149e+00
1.17659149e+00
1.17659149e+00
1.17659149e+00
1.17659149e+00
1.17659149e+00
1.17659149e+00
1.17659149e+00
1.17659149e+00
1.17659149e+00
1.17659149e+00
1.17659149e+00
1.17659149e+00
1.17659149e+00
1.17659149e+00
1.17659149e+00
1.17659149e+00
1.17659149e+00
1.17659151e+00
1.17659511e+00
1.17683044e+00
1.18301825e+00
1.24715326e+00
1.48004742e+00
1.78407208e+00
1.94979049e+00
1.96378275e+00
1.97894469e+00
1.98112073e+00
1.97715488e+00
1.97083467e+00
1.96708150e+00
1.96644531e+00
1.96661085e+00
1.96643673e+00
1.96601987e+00
1.96590187e+00
1.96644361e+00
1.96707095e+00
1.96706606e+00
1.96670169e+00
1.96595211e+00
1.96531839e+00
1.96497731e+00
1.96473123e+00
1.96458983e+00
1.96494400e+00
1.97596345e+00
2.10825670e+00
2.54384008e+00
2.94290770e+00
3.08019161e+00
3.06446707e+00
3.06975539e+00
3.07672162e+00
3.07323459e+00
3.07020067e+00
3.07131328e+00
1.17659149e+00
1.17659149e+00
1.17659149e+00
1.17659149e+00
1.17659149e+00
1.17659149e+00
1.17659149e+00
1.17659149e+00
1.17659149e+00
1.17659149e+00
1.17659149e+00
1.17659149e+00
1.17659149e+00
1.17659149e+00
1.17659149e+00
1.17659149e+00
1.17659149e+00
1.17659149e+00
1.17659149e+00
1.17659149e+00
1.17659149e+00
1.17659149e+00
1.17659149e+00
1.17659149e+00
1.17659149e+00
1.17659149e+00
1.17659149e+00
1.17659149e+00
1.17659149e+00
1.17659149e+00
1.17659149e+00
1.17659149e+00
1.17659149e+00
1.17659149e+00
1.17659149e+00
1.17659149e+00
1.17659149e+00
1.17659149e+00
1.17659149e+00
1.17659149e+00
1.17659149e+00
1.17659150e+00
1.17659354e+00
1.17674326e+00
1.18124535e+00
1.23396709e+00
1.44846917e+00
1.75009455e+00
1.93577756e+00