# vtk DataFile Version 3.0
anvil_cfd_result
ASCII
DATASET STRUCTURED_GRID
DIMENSIONS 81 41 1
POINTS 3321 double
0.00000000e+00 0.00000000e+00 0.0
1.25000000e-02 2.20408726e-03 0.0
2.50000000e-02 4.40817452e-03 0.0
3.75000000e-02 6.61226178e-03 0.0
5.00000000e-02 8.81634904e-03 0.0
6.25000000e-02 1.10204363e-02 0.0
7.50000000e-02 1.32245236e-02 0.0
8.75000000e-02 1.54286108e-02 0.0
1.00000000e-01 1.76326981e-02 0.0
1.12500000e-01 1.98367853e-02 0.0
1.25000000e-01 2.20408726e-02 0.0
1.37500000e-01 2.42449598e-02 0.0
1.50000000e-01 2.64490471e-02 0.0
1.62500000e-01 2.86531344e-02 0.0
1.75000000e-01 3.08572216e-02 0.0
1.87500000e-01 3.30613089e-02 0.0
2.00000000e-01 3.52653961e-02 0.0
2.12500000e-01 3.74694834e-02 0.0
2.25000000e-01 3.96735707e-02 0.0
2.37500000e-01 4.18776579e-02 0.0
2.50000000e-01 4.40817452e-02 0.0
2.62500000e-01 4.62858324e-02 0.0
2.75000000e-01 4.84899197e-02 0.0
2.87500000e-01 5.06940070e-02 0.0
3.00000000e-01 5.28980942e-02 0.0
3.12500000e-01 5.51021815e-02 0.0
3.25000000e-01 5.73062687e-02 0.0
3.37500000e-01 5.95103560e-02 0.0
3.50000000e-01 6.17144432e-02 0.0
3.62500000e-01 6.39185305e-02 0.0
3.75000000e-01 6.61226178e-02 0.0
3.87500000e-01 6.83267050e-02 0.0
4.00000000e-01 7.05307923e-02 0.0
4.12500000e-01 7.27348795e-02 0.0
4.25000000e-01 7.49389668e-02 0.0
4.37500000e-01 7.71430541e-02 0.0
4.50000000e-01 7.93471413e-02 0.0
4.62500000e-01 8.15512286e-02 0.0
4.75000000e-01 8.37553158e-02 0.0
4.87500000e-01 8.59594031e-02 0.0
5.00000000e-01 8.81634904e-02 0.0
5.12500000e-01 9.03675776e-02 0.0
5.25000000e-01 9.25716649e-02 0.0
5.37500000e-01 9.47757521e-02 0.0
5.50000000e-01 9.69798394e-02 0.0
5.62500000e-01 9.91839266e-02 0.0
5.75000000e-01 1.01388014e-01 0.0
5.87500000e-01 1.03592101e-01 0.0
6.00000000e-01 1.05796188e-01 0.0
6.12500000e-01 1.08000276e-01 0.0
6.25000000e-01 1.10204363e-01 0.0
6.37500000e-01 1.12408450e-01 0.0
6.50000000e-01 1.14612537e-01 0.0
6.62500000e-01 1.16816625e-01 0.0
6.75000000e-01 1.19020712e-01 0.0
6.87500000e-01 1.21224799e-01 0.0
7.00000000e-01 1.23428886e-01 0.0
7.12500000e-01 1.25632974e-01 0.0
7.25000000e-01 1.27837061e-01 0.0
7.37500000e-01 1.30041148e-01 0.0
7.50000000e-01 1.32245236e-01 0.0
7.62500000e-01 1.34449323e-01 0.0
7.75000000e-01 1.36653410e-01 0.0
7.87500000e-01 1.38857497e-01 0.0
8.00000000e-01 1.41061585e-01 0.0
8.12500000e-01 1.43265672e-01 0.0
8.25000000e-01 1.45469759e-01 0.0
8.37500000e-01 1.47673846e-01 0.0
8.50000000e-01 1.49877934e-01 0.0
8.62500000e-01 1.52082021e-01 0.0
8.75000000e-01 1.54286108e-01 0.0
8.87500000e-01 1.56490195e-01 0.0
9.00000000e-01 1.58694283e-01 0.0
9.12500000e-01 1.60898370e-01 0.0
9.25000000e-01 1.63102457e-01 0.0
9.37500000e-01 1.65306544e-01 0.0
9.50000000e-01 1.67510632e-01 0.0
9.62500000e-01 1.69714719e-01 0.0
9.75000000e-01 1.71918806e-01 0.0
9.87500000e-01 1.74122893e-01 0.0
1.00000000e+00 1.76326981e-01 0.0
0.00000000e+00 1.50000000e-02 0.0
1.25000000e-02 1.72040873e-02 0.0
2.50000000e-02 1.94081745e-02 0.0
3.75000000e-02 2.16122618e-02 0.0
5.00000000e-02 2.38163490e-02 0.0
6.25000000e-02 2.60204363e-02 0.0
7.50000000e-02 2.82245236e-02 0.0
8.75000000e-02 3.04286108e-02 0.0
1.00000000e-01 3.26326981e-02 0.0
1.12500000e-01 3.48367853e-02 0.0
1.25000000e-01 3.70408726e-02 0.0
1.37500000e-01 3.92449598e-02 0.0
1.50000000e-01 4.14490471e-02 0.0
1.62500000e-01 4.36531344e-02 0.0
1.75000000e-01 4.58572216e-02 0.0
1.87500000e-01 4.80613089e-02 0.0
2.00000000e-01 5.02653961e-02 0.0
2.12500000e-01 5.24694834e-02 0.0
2.25000000e-01 5.46735707e-02 0.0
2.37500000e-01 5.68776579e-02 0.0
2.50000000e-01 5.90817452e-02 0.0
2.62500000e-01 6.12858324e-02 0.0
2.75000000e-01 6.34899197e-02 0.0
2.87500000e-01 6.56940070e-02 0.0
3.00000000e-01 6.78980942e-02 0.0
3.12500000e-01 7.01021815e-02 0.0
3.25000000e-01 7.23062687e-02 0.0
3.37500000e-01 7.45103560e-02 0.0
3.50000000e-01 7.67144432e-02 0.0
3.62500000e-01 7.89185305e-02 0.0
3.75000000e-01 8.11226178e-02 0.0
3.87500000e-01 8.33267050e-02 0.0
4.00000000e-01 8.55307923e-02 0.0
4.12500000e-01 8.77348795e-02 0.0
4.25000000e-01 8.99389668e-02 0.0
4.37500000e-01 9.21430541e-02 0.0
4.50000000e-01 9.43471413e-02 0.0
4.62500000e-01 9.65512286e-02 0.0
4.75000000e-01 9.87553158e-02 0.0
4.87500000e-01 1.00959403e-01 0.0
5.00000000e-01 1.03163490e-01 0.0
5.12500000e-01 1.05367578e-01 0.0
5.25000000e-01 1.07571665e-01 0.0
5.37500000e-01 1.09775752e-01 0.0
5.50000000e-01 1.11979839e-01 0.0
5.62500000e-01 1.14183927e-01 0.0
5.75000000e-01 1.16388014e-01 0.0
5.87500000e-01 1.18592101e-01 0.0
6.00000000e-01 1.20796188e-01 0.0
6.12500000e-01 1.23000276e-01 0.0
6.25000000e-01 1.25204363e-01 0.0
6.37500000e-01 1.27408450e-01 0.0
6.50000000e-01 1.29612537e-01 0.0
6.62500000e-01 1.31816625e-01 0.0
6.75000000e-01 1.34020712e-01 0.0
6.87500000e-01 1.36224799e-01 0.0
7.00000000e-01 1.38428886e-01 0.0
7.12500000e-01 1.40632974e-01 0.0
7.25000000e-01 1.42837061e-01 0.0
7.37500000e-01 1.45041148e-01 0.0
7.50000000e-01 1.47245236e-01 0.0
7.62500000e-01 1.49449323e-01 0.0
7.75000000e-01 1.51653410e-01 0.0
7.87500000e-01 1.53857497e-01 0.0
8.00000000e-01 1.56061585e-01 0.0
8.12500000e-01 1.58265672e-01 0.0
8.25000000e-01 1.60469759e-01 0.0
8.37500000e-01 1.62673846e-01 0.0
8.50000000e-01 1.64877934e-01 0.0
8.62500000e-01 1.67082021e-01 0.0
8.75000000e-01 1.69286108e-01 0.0
8.87500000e-01 1.71490195e-01 0.0
9.00000000e-01 1.73694283e-01 0.0
9.12500000e-01 1.75898370e-01 0.0
9.25000000e-01 1.78102457e-01 0.0
9.37500000e-01 1.80306544e-01 0.0
9.50000000e-01 1.82510632e-01 0.0
9.62500000e-01 1.84714719e-01 0.0
9.75000000e-01 1.86918806e-01 0.0
9.87500000e-01 1.89122893e-01 0.0
1.00000000e+00 1.91326981e-01 0.0
0.00000000e+00 3.00000000e-02 0.0
1.25000000e-02 3.22040873e-02 0.0
2.50000000e-02 3.44081745e-02 0.0
3.75000000e-02 3.66122618e-02 0.0
5.00000000e-02 3.88163490e-02 0.0
6.25000000e-02 4.10204363e-02 0.0
7.50000000e-02 4.32245236e-02 0.0
8.75000000e-02 4.54286108e-02 0.0
1.00000000e-01 4.76326981e-02 0.0
1.12500000e-01 4.98367853e-02 0.0
1.25000000e-01 5.20408726e-02 0.0
1.37500000e-01 5.42449598e-02 0.0
1.50000000e-01 5.64490471e-02 0.0
1.62500000e-01 5.86531344e-02 0.0
1.75000000e-01 6.08572216e-02 0.0
1.87500000e-01 6.30613089e-02 0.0
2.00000000e-01 6.52653961e-02 0.0
2.12500000e-01 6.74694834e-02 0.0
2.25000000e-01 6.96735707e-02 0.0
2.37500000e-01 7.18776579e-02 0.0
2.50000000e-01 7.40817452e-02 0.0
2.62500000e-01 7.62858324e-02 0.0
2.75000000e-01 7.84899197e-02 0.0
2.87500000e-01 8.06940070e-02 0.0
3.00000000e-01 8.28980942e-02 0.0
3.12500000e-01 8.51021815e-02 0.0
3.25000000e-01 8.73062687e-02 0.0
3.37500000e-01 8.95103560e-02 0.0
3.50000000e-01 9.17144432e-02 0.0
3.62500000e-01 9.39185305e-02 0.0
3.75000000e-01 9.61226178e-02 0.0
3.87500000e-01 9.83267050e-02 0.0
4.00000000e-01 1.00530792e-01 0.0
4.12500000e-01 1.02734880e-01 0.0
4.25000000e-01 1.04938967e-01 0.0
4.37500000e-01 1.07143054e-01 0.0
4.50000000e-01 1.09347141e-01 0.0
4.62500000e-01 1.11551229e-01 0.0
4.75000000e-01 1.13755316e-01 0.0
4.87500000e-01 1.15959403e-01 0.0
5.00000000e-01 1.18163490e-01 0.0
5.12500000e-01 1.20367578e-01 0.0
5.25000000e-01 1.22571665e-01 0.0
5.37500000e-01 1.24775752e-01 0.0
5.50000000e-01 1.26979839e-01 0.0
5.62500000e-01 1.29183927e-01 0.0
5.75000000e-01 1.31388014e-01 0.0
5.87500000e-01 1.33592101e-01 0.0
6.00000000e-01 1.35796188e-01 0.0
6.12500000e-01 1.38000276e-01 0.0
6.25000000e-01 1.40204363e-01 0.0
6.37500000e-01 1.42408450e-01 0.0
6.50000000e-01 1.44612537e-01 0.0
6.62500000e-01 1.46816625e-01 0.0
6.75000000e-01 1.49020712e-01 0.0
6.87500000e-01 1.51224799e-01 0.0
7.00000000e-01 1.53428886e-01 0.0
7.12500000e-01 1.55632974e-01 0.0
7.25000000e-01 1.57837061e-01 0.0
7.37500000e-01 1.60041148e-01 0.0
7.50000000e-01 1.62245236e-01 0.0
7.62500000e-01 1.64449323e-01 0.0
7.75000000e-01 1.66653410e-01 0.0
7.87500000e-01 1.68857497e-01 0.0
8.00000000e-01 1.71061585e-01 0.0
8.12500000e-01 1.73265672e-01 0.0
8.25000000e-01 1.75469759e-01 0.0
8.37500000e-01 1.77673846e-01 0.0
8.50000000e-01 1.79877934e-01 0.0
8.62500000e-01 1.82082021e-01 0.0
8.75000000e-01 1.84286108e-01 0.0
8.87500000e-01 1.86490195e-01 0.0
9.00000000e-01 1.88694283e-01 0.0
9.12500000e-01 1.90898370e-01 0.0
9.25000000e-01 1.93102457e-01 0.0
9.37500000e-01 1.95306544e-01 0.0
9.50000000e-01 1.97510632e-01 0.0
9.62500000e-01 1.99714719e-01 0.0
9.75000000e-01 2.01918806e-01 0.0
9.87500000e-01 2.04122893e-01 0.0
1.00000000e+00 2.06326981e-01 0.0
0.00000000e+00 4.50000000e-02 0.0
1.25000000e-02 4.72040873e-02 0.0
2.50000000e-02 4.94081745e-02 0.0
3.75000000e-02 5.16122618e-02 0.0
5.00000000e-02 5.38163490e-02 0.0
6.25000000e-02 5.60204363e-02 0.0
7.50000000e-02 5.82245236e-02 0.0
8.75000000e-02 6.04286108e-02 0.0
1.00000000e-01 6.26326981e-02 0.0
1.12500000e-01 6.48367853e-02 0.0
1.25000000e-01 6.70408726e-02 0.0
1.37500000e-01 6.92449598e-02 0.0
1.50000000e-01 7.14490471e-02 0.0
1.62500000e-01 7.36531344e-02 0.0
1.75000000e-01 7.58572216e-02 0.0
1.87500000e-01 7.80613089e-02 0.0
2.00000000e-01 8.02653961e-02 0.0
2.12500000e-01 8.24694834e-02 0.0
2.25000000e-01 8.46735707e-02 0.0
2.37500000e-01 8.68776579e-02 0.0
2.50000000e-01 8.90817452e-02 0.0
2.62500000e-01 9.12858324e-02 0.0
2.75000000e-01 9.34899197e-02 0.0
2.87500000e-01 9.56940070e-02 0.0
3.00000000e-01 9.78980942e-02 0.0
3.12500000e-01 1.00102181e-01 0.0
3.25000000e-01 1.02306269e-01 0.0
3.37500000e-01 1.04510356e-01 0.0
3.50000000e-01 1.06714443e-01 0.0
3.62500000e-01 1.08918531e-01 0.0
3.75000000e-01 1.11122618e-01 0.0
3.87500000e-01 1.13326705e-01 0.0
4.00000000e-01 1.15530792e-01 0.0
4.12500000e-01 1.17734880e-01 0.0
4.25000000e-01 1.19938967e-01 0.0
4.37500000e-01 1.22143054e-01 0.0
4.50000000e-01 1.24347141e-01 0.0
4.62500000e-01 1.26551229e-01 0.0
4.75000000e-01 1.28755316e-01 0.0
4.87500000e-01 1.30959403e-01 0.0
5.00000000e-01 1.33163490e-01 0.0
5.12500000e-01 1.35367578e-01 0.0
5.25000000e-01 1.37571665e-01 0.0
5.37500000e-01 1.39775752e-01 0.0
5.50000000e-01 1.41979839e-01 0.0
5.62500000e-01 1.44183927e-01 0.0
5.75000000e-01 1.46388014e-01 0.0
[...]
CELL_DATA 3200
SCALARS rho double 1
LOOKUP_TABLE default
1.32735252e+00
1.50096625e+00
1.62226679e+00
1.67549742e+00
1.70442165e+00
1.70365743e+00
1.69926911e+00
1.69495155e+00
1.69033801e+00
1.69177633e+00
1.69508347e+00
1.69912794e+00
1.70039486e+00
1.69923310e+00
1.69709982e+00
1.69547624e+00
1.69599653e+00
1.69708580e+00
1.69854577e+00
1.69850105e+00
1.69790992e+00
1.69708083e+00
1.69709308e+00
1.69735594e+00
1.69781071e+00
1.69817080e+00
1.69826103e+00
1.69822010e+00
1.69814946e+00
1.69810278e+00
1.69811227e+00
1.69814345e+00
1.69819573e+00
1.69826678e+00
1.69836311e+00
1.69848547e+00
1.69862146e+00
1.69875789e+00
1.69888082e+00
1.69898176e+00
1.69905552e+00
1.69911219e+00
1.69915648e+00
1.69919286e+00
1.69922517e+00
1.69925637e+00
1.69928875e+00
1.69932286e+00
1.69935935e+00
1.69939924e+00
1.69944332e+00
1.69948835e+00
1.69953194e+00
1.69957371e+00
1.69961569e+00
1.69965950e+00
1.69970574e+00
1.69975389e+00
1.69980336e+00
1.69985431e+00
1.69990797e+00
1.69996595e+00
1.70003078e+00
1.70010221e+00
1.70017793e+00
1.70025466e+00
1.70032844e+00
1.70039658e+00
1.70045645e+00
1.70050682e+00
1.70054609e+00
1.70057613e+00
1.70059962e+00
1.70061838e+00
1.70063513e+00
1.70065368e+00
1.70067538e+00
1.70070301e+00
1.70072840e+00
1.70073337e+00
1.20115457e+00
1.27983619e+00
1.41334806e+00
1.55147380e+00
1.65166284e+00
1.68965688e+00
1.70541295e+00
1.70867970e+00
1.71248389e+00
1.71603695e+00
1.71602574e+00
1.71474929e+00
1.71293008e+00
1.71310632e+00
1.71346447e+00
1.71452856e+00
1.71430634e+00
1.71381072e+00
1.71333006e+00
1.71276768e+00
1.71303017e+00
1.71334183e+00
1.71354095e+00
1.71333965e+00
1.71297837e+00
1.71264271e+00
1.71240719e+00
1.71225304e+00
1.71214063e+00
1.71200725e+00
1.71187085e+00
1.71175254e+00
1.71165692e+00
1.71161285e+00
1.71159080e+00
1.71159218e+00
1.71159984e+00
1.71159678e+00
1.71158382e+00
1.71155971e+00
1.71152297e+00
1.71147148e+00
1.71140781e+00
1.71133608e+00
1.71125904e+00
1.71118252e+00
1.71110787e+00
1.71103667e+00
1.71097093e+00
1.71091184e+00
1.71085800e+00
1.71080593e+00
1.71075694e+00
1.71071125e+00
1.71066811e+00
1.71062588e+00
1.71058442e+00
1.71054441e+00
1.71050750e+00
1.71047564e+00
1.71045014e+00
1.71043145e+00
1.71041998e+00
1.71041033e+00
1.71040081e+00
1.71038974e+00
1.71037464e+00
1.71035419e+00
1.71032599e+00
1.71029143e+00
1.71024853e+00
1.71020454e+00
1.71015781e+00
1.71010998e+00
1.71006486e+00
1.71002570e+00
1.70999264e+00
1.70996129e+00
1.70993212e+00
1.70985065e+00
1.17732480e+00
1.18425251e+00
1.21574180e+00
1.29878611e+00
1.43349830e+00
1.57544809e+00
1.66580995e+00
1.70490811e+00
1.72208102e+00
1.72179627e+00
1.71774972e+00
1.71167273e+00
1.71100903e+00
1.71285039e+00
1.71656768e+00
1.71864664e+00
1.71826295e+00
1.71660048e+00
1.71498070e+00
1.71439593e+00
1.71494387e+00
1.71569924e+00
1.71638945e+00
1.71633445e+00
1.71603248e+00
1.71575525e+00
1.71576982e+00
1.71583296e+00
1.71589758e+00
1.71589075e+00
1.71586228e+00
1.71582679e+00
1.71580188e+00
1.71580904e+00
1.71581806e+00
1.71582699e+00
1.71582337e+00
1.71581413e+00
1.71579793e+00
1.71579912e+00
1.71580608e+00
1.71581313e+00
1.71581879e+00
1.71581490e+00
1.71580441e+00
1.71578696e+00
1.71576376e+00
1.71573796e+00
1.71571007e+00
1.71567934e+00
1.71564885e+00
1.71561546e+00
1.71558919e+00
1.71557298e+00
1.71556562e+00
1.71556279e+00
1.71556096e+00
1.71555934e+00
1.71555729e+00
1.71555728e+00
1.71555887e+00
1.71556234e+00
1.71556633e+00
1.71557249e+00
1.71558101e+00
1.71559156e+00
1.71560384e+00
1.71561520e+00
1.71562358e+00
1.71562099e+00
1.71561210e+00
1.71558986e+00
1.71555643e+00
1.71551467e+00
1.71547243e+00
1.71543619e+00
1.71540968e+00
1.71538868e+00
1.71537066e+00
1.71531400e+00
1.17659598e+00
1.17671291e+00
1.17807294e+00
1.18711051e+00
1.22343127e+00
1.31548919e+00
1.45800036e+00
1.58957487e+00
1.66728967e+00
1.69622421e+00
1.70368249e+00
1.70629927e+00
1.71137495e+00
1.71736598e+00
1.71992840e+00
1.71864262e+00
1.71598024e+00
1.71457025e+00
1.71465843e+00
1.71538350e+00
1.71624369e+00
1.71618756e+00
1.71582190e+00
1.71539272e+00
1.71535552e+00
1.71538280e+00
1.71552782e+00
1.71564733e+00
1.71568580e+00
1.71567471e+00
1.71566676e+00
1.71568738e+00
1.71573714e+00
1.71577414e+00
1.71576386e+00
1.71573295e+00
1.71568670e+00
1.71563887e+00
1.71560340e+00
1.71560533e+00
1.71561624e+00
1.71563418e+00
1.71565258e+00
1.71566683e+00
1.71567894e+00
1.71568310e+00
1.71568080e+00
1.71567426e+00
1.71566308e+00
1.71564710e+00
1.71562935e+00
1.71561368e+00
1.71560031e+00
1.71559223e+00
1.71558676e+00
1.71558784e+00
1.71559334e+00
1.71560399e+00
1.71561857e+00
1.71563423e+00
1.71565034e+00
1.71566255e+00
1.71566854e+00
1.71567005e+00
1.71567042e+00
1.71567131e+00
1.71567363e+00
1.71567859e+00
1.71568556e+00
1.71569239e+00
1.71569952e+00
1.71570337e+00
1.71570250e+00
1.71569796e+00
1.71568910e+00
1.71568158e+00
1.71567764e+00
1.71567430e+00
1.71566849e+00
1.71562098e+00
1.17659150e+00
1.17659190e+00
1.17660378e+00
1.17679450e+00
1.17862375e+00
1.18988899e+00
1.23364606e+00
1.33526455e+00
1.47873360e+00
1.60375458e+00
1.67801897e+00
1.71001145e+00
1.72300143e+00
1.72137306e+00
1.71708387e+00
1.71128134e+00
1.71154839e+00
1.71366197e+00
1.71679034e+00
1.71821687e+00
1.71762499e+00
1.71607206e+00
1.71460080e+00
1.71463992e+00
1.71512155e+00
1.71565124e+00
1.71587114e+00
1.71579632e+00
1.71567185e+00
1.71568446e+00
1.71576649e+00
1.71589517e+00
1.71597368e+00
1.71594279e+00
1.71585343e+00
1.71574953e+00
1.71566682e+00
1.71561713e+00
1.71561781e+00
1.71562357e+00
1.71562692e+00
1.71563417e+00
1.71564668e+00
1.71566372e+00
1.71568271e+00
1.71569878e+00
1.71570998e+00
1.71570916e+00
1.71570544e+00
1.71569950e+00
1.71569044e+00
1.71568550e+00
1.71567892e+00
1.71567319e+00
1.71566466e+00
1.71566498e+00
1.71566991e+00
1.71568113e+00
1.71569566e+00
1.71571139e+00
1.71572251e+00
1.71572674e+00
1.71572392e+00
1.71571620e+00
1.71570485e+00
1.71569316e+00
1.71568448e+00
1.71567876e+00
1.71568156e+00
1.71568943e+00
1.71570026e+00
1.71571315e+00
1.71572724e+00
1.71574141e+00
1.71574900e+00
1.71575337e+00
1.71575962e+00
1.71575969e+00
1.71575566e+00
1.71570477e+00
1.17659149e+00
1.17659149e+00
1.17659151e+00
1.17659235e+00
1.17661115e+00
1.17687920e+00
1.17936774e+00
1.19378871e+00
1.24489811e+00
1.35410466e+00
1.49768928e+00
1.61492640e+00
1.67682628e+00
1.69654197e+00
1.70200084e+00
1.70690399e+00
1.71360541e+00
1.72054318e+00
1.72030030e+00
1.71843314e+00
1.71554905e+00
1.71424749e+00
1.71459588e+00
1.71542591e+00
1.71605665e+00
1.71604644e+00
1.71582876e+00
1.71558980e+00
1.71562907e+00
1.71585893e+00
1.71611952e+00
1.71622634e+00
1.71616600e+00
1.71600349e+00
1.71585888e+00
1.71577439e+00
1.71573934e+00
1.71574479e+00
1.71574394e+00
1.71572921e+00
1.71570533e+00
1.71569918e+00
1.71570788e+00
1.71572644e+00
1.71574967e+00
1.71577118e+00
1.71578795e+00
1.71579688e+00
1.71579501e+00
1.71579359e+00
1.71579059e+00
1.71578889e+00
1.71578936e+00
1.71579124e+00
1.71579590e+00
1.71580336e+00
1.71581126e+00
1.71581903e+00
1.71582597e+00
1.71583284e+00
1.71583197e+00
1.71582752e+00
1.71581922e+00
1.71580781e+00
1.71579429e+00
1.71578045e+00
1.71576738e+00
1.71575850e+00
1.71575395e+00
1.71575688e+00
1.71576418e+00
1.71577694e+00
1.71579436e+00
1.71581662e+00
1.71584078e+00
1.71586496e+00
1.71588439e+00
1.71589014e+00
1.71588649e+00
1.71583380e+00
1.17659149e+00
1.17659149e+00
1.17659149e+00
1.17659149e+00
1.17659153e+00
1.17659287e+00
1.17662155e+00
1.17701353e+00
1.18037466e+00
1.19824605e+00
1.25665402e+00
1.37326772e+00
1.51626636e+00
1.62774109e+00
1.68882795e+00
1.71520028e+00
1.72454026e+00
1.72210588e+00
1.71701846e+00
1.71171120e+00
1.71217510e+00
1.71453226e+00
1.71757635e+00
1.71750342e+00
1.71672247e+00
1.71551838e+00
1.71509754e+00
1.71537384e+00
1.71595189e+00
1.71647620e+00
1.71646520e+00
1.71625685e+00
1.71597522e+00
1.71587179e+00
1.71589252e+00
1.71594508e+00
1.71595844e+00
1.71592016e+00
1.71584841e+00
1.71578845e+00
1.71576594e+00
1.71577527e+00
1.71578927e+00
1.71580455e+00
1.71581959e+00
1.71583442e+00
1.71584948e+00
1.71586362e+00
1.71587304e+00
1.71587984e+00
1.71588633e+00
1.71589418e+00
1.71590342e+00
1.71591313e+00
1.71592442e+00
1.71593230e+00
1.71593637e+00
1.71593407e+00
1.71592781e+00
1.71591895e+00
1.71590827e+00
1.71589828e+00
1.71588808e+00
1.71587712e+00
1.71586519e+00
1.71585203e+00
1.71583854e+00
1.71582541e+00
1.71581649e+00
1.71581460e+00
1.71581870e+00
1.71582905e+00
1.71584533e+00
1.71586828e+00
1.71589845e+00
1.71593401e+00
1.71597347e+00
1.71599453e+00
1.71599411e+00
1.71594681e+00
1.17659149e+00
1.17659149e+00
1.17659149e+00
1.17659149e+00
1.17659149e+00
1.17659149e+00
1.17659156e+00
1.17659378e+00
1.17663820e+00
1.17719559e+00
1.18159173e+00
1.20333401e+00
1.26941589e+00
1.39219591e+00
1.53282126e+00
1.63501385e+00
1.68347620e+00
1.69898353e+00
1.70395613e+00
1.70958046e+00
1.71623579e+00
1.72115703e+00
1.72033257e+00
1.71755320e+00
1.71450736e+00
1.71452540e+00
1.71526811e+00
1.71653726e+00
1.71691938e+00
1.71671600e+00
1.71619991e+00
1.71569781e+00
1.71570402e+00
1.71586846e+00
1.71607406e+00
1.71615672e+00
1.71609927e+00
1.71598081e+00
1.71586630e+00
1.71583573e+00
1.71584754e+00
1.71586383e+00
1.71586258e+00
1.71585619e+00
1.71585360e+00
1.71585953e+00
1.71587424e+00
1.71589524e+00
1.71591808e+00
1.71593967e+00
1.71596094e+00
1.71598225e+00
1.71600221e+00
1.71601989e+00
1.71602996e+00
1.71603387e+00
1.71603008e+00
1.71602074e+00
1.71600580e+00
1.71598723e+00
1.71596789e+00
1.71595062e+00
1.71593538e+00
1.71592179e+00
1.71590966e+00
1.71589788e+00
1.71588746e+00
1.71587770e+00
1.71587181e+00
1.71586905e+00
1.71587206e+00
1.71587992e+00
1.71589317e+00
1.71591277e+00
1.71594015e+00
1.71597480e+00
1.71602000e+00
1.71605125e+00
1.71605176e+00
1.71601021e+00
1.17659149e+00
1.17659149e+00
1.17659149e+00
1.17659149e+00
1.17659149e+00
1.17659149e+00
1.17659149e+00
1.17659149e+00
1.17659162e+00
1.17659523e+00
1.17666140e+00
1.17743118e+00
1.18309264e+00
1.20914125e+00
1.28287065e+00
1.41082152e+00
1.54955966e+00
1.64761950e+00
1.69860430e+00
1.72053465e+00
1.72599599e+00
1.72186567e+00
1.71453577e+00
1.71221008e+00
1.71324772e+00
1.71597557e+00
1.71825591e+00
1.71804282e+00
1.71691491e+00
1.71549836e+00
1.71520513e+00
1.71547338e+00
1.71601019e+00
1.71643156e+00
1.71641271e+00
1.71622050e+00
1.71599387e+00
1.71594197e+00
1.71597635e+00
1.71603272e+00
1.71602610e+00
1.71599460e+00
1.71594888e+00
1.71591753e+00
1.71591138e+00
1.71591862e+00
1.71593476e+00
1.71595814e+00
1.71598766e+00
1.71602174e+00
1.71605689e+00
1.71608976e+00
1.71611539e+00
1.71613455e+00
1.71613442e+00
1.71612931e+00
1.71611809e+00
1.71610171e+00
1.71608251e+00
1.71606146e+00
1.71604034e+00
1.71601982e+00
1.71600121e+00
1.71598545e+00
1.71597314e+00
1.71596367e+00
1.71595768e+00
1.71595385e+00
1.71595027e+00
1.71594612e+00
1.71594633e+00
1.71594953e+00
1.71595802e+00
1.71597269e+00
1.71599441e+00
1.71602415e+00
1.71606376e+00
1.71609691e+00
1.71610155e+00
1.71606417e+00
1.17659149e+00
1.17659149e+00
1.17659149e+00
1.17659149e+00
1.17659149e+00
1.17659149e+00
1.17659149e+00
1.17659149e+00
1.17659149e+00
1.17659150e+00
1.17659170e+00
1.17659735e+00
1.17669374e+00
1.17773849e+00
1.18490252e+00
1.21562313e+00
1.29685047e+00
1.42938824e+00
1.56424251e+00
1.65188089e+00
1.69007531e+00
1.70164362e+00
1.70518172e+00
1.71190606e+00
1.71985522e+00
1.72212641e+00
1.72018653e+00
1.71641371e+00
1.71387724e+00
1.71409875e+00
1.71517354e+00
1.71653163e+00
1.71697684e+00
1.71667900e+00
1.71616502e+00
1.71577329e+00
1.71580452e+00
1.71598811e+00
1.71618186e+00
1.71617443e+00
1.71609367e+00
1.71598937e+00
1.71591765e+00
1.71591777e+00
1.71592671e+00
1.71593636e+00
1.71594874e+00
1.71596981e+00
1.71600353e+00
1.71604838e+00
1.71609185e+00
1.71612775e+00
1.71614981e+00
1.71615687e+00
1.71615211e+00
1.71614097e+00
1.71612525e+00
1.71610655e+00
1.71608625e+00
1.71606506e+00
1.71604381e+00
1.71602311e+00
1.71600429e+00
1.71598879e+00
1.71597689e+00
1.71596984e+00
1.71596764e+00
1.71596879e+00
1.71597088e+00
1.71597135e+00
1.71597211e+00
1.71597427e+00
1.71597960e+00
1.71598971e+00
1.71600619e+00
1.71603065e+00
1.71606524e+00
1.71609905e+00
1.71610425e+00
1.71606776e+00
1.17659149e+00
1.17659149e+00
1.17659149e+00
1.17659149e+00
1.17659149e+00
1.17659149e+00
1.17659149e+00
1.17659149e+00
1.17659149e+00
1.17659149e+00
1.17659149e+00
1.17659150e+00
1.17659184e+00
1.17660049e+00
1.17673802e+00
1.17812832e+00
1.18703436e+00
1.22282719e+00
1.31169344e+00
1.44821084e+00
1.57922215e+00
1.66642120e+00
1.70701058e+00
1.72556787e+00
1.72463018e+00
1.71980014e+00
1.71189098e+00
1.71196555e+00
1.71358457e+00
1.71641600e+00
1.71784102e+00
1.71761067e+00
1.71657520e+00
1.71545644e+00
1.71533659e+00
1.71565914e+00
1.71611093e+00
1.71641414e+00
1.71636064e+00
1.71613161e+00
1.71595905e+00
1.71590818e+00
1.71593432e+00
1.71597367e+00
1.71597334e+00
1.71596304e+00
1.71596686e+00
1.71599057e+00
1.71603400e+00
1.71608156e+00
1.71611827e+00
1.71614154e+00
1.71614113e+00
1.71613683e+00
1.71612840e+00
1.71611703e+00
1.71610312e+00
1.71608684e+00
1.71606852e+00
1.71604890e+00
1.71602928e+00
1.71601030e+00
1.71599325e+00
1.71597945e+00
1.71596997e+00
1.71596571e+00
1.71596697e+00
1.71597050e+00
1.71597496e+00
1.71597800e+00
1.71597967e+00
1.71598083e+00
1.71598316e+00
1.71598892e+00
1.71600029e+00
1.71601915e+00
1.71604756e+00
1.71607388e+00
1.71608034e+00
1.71604255e+00
1.17659149e+00
1.17659149e+00
1.17659149e+00
1.17659149e+00
1.17659149e+00
1.17659149e+00
1.17659149e+00
1.17659149e+00
1.17659149e+00
1.17659149e+00
1.17659149e+00
1.17659149e+00
1.17659149e+00
1.17659151e+00
1.17659206e+00
1.17660500e+00
1.17679689e+00
1.17861487e+00
1.18956023e+00
1.23097339e+00
1.32700473e+00
1.46665167e+00
1.59364646e+00
1.66749564e+00
1.69276901e+00
1.70054930e+00
1.70601177e+00
1.71297017e+00
1.72120121e+00
1.72109631e+00
1.71908165e+00
1.71565084e+00
1.71373789e+00
1.71415916e+00
1.71543610e+00
1.71675958e+00
1.71673800e+00
1.71637878e+00
1.71594205e+00
1.71569487e+00
1.71575609e+00
1.71593579e+00
1.71603339e+00
1.71600484e+00
1.71594215e+00
1.71591010e+00
1.71593047e+00
1.71598617e+00
1.71603753e+00
1.71606523e+00
1.71606255e+00
1.71605389e+00
1.71604284e+00
1.71603550e+00
1.71603137e+00
1.71602649e+00
1.71601879e+00
1.71600799e+00
1.71599430e+00
1.71597938e+00
1.71596442e+00
1.71595083e+00
1.71593769e+00
1.71593069e+00
1.71592489e+00
1.71592513e+00
1.71592817e+00
1.71593329e+00
1.71593846e+00
1.71594194e+00
1.71594278e+00
1.71594277e+00
1.71594336e+00
1.71594648e+00
1.71595416e+00
1.71596826e+00
1.71599035e+00
1.71600859e+00
1.71601427e+00
1.71597340e+00
1.17659149e+00
1.17659149e+00
1.17659149e+00
1.17659149e+00
1.17659149e+00
1.17659149e+00
1.17659149e+00
1.17659149e+00
1.17659149e+00
1.17659149e+00
1.17659149e+00
1.17659149e+00
1.17659149e+00
1.17659149e+00
1.17659149e+00
1.17659152e+00
1.17659238e+00
1.17661131e+00
1.17687468e+00
1.17923166e+00
1.19254033e+00
1.23977214e+00
1.34431041e+00
1.48633537e+00
1.60848532e+00
1.68107496e+00
1.71374186e+00
1.72650052e+00
1.72430645e+00
1.71882685e+00
1.71177282e+00
1.71197099e+00
1.71384426e+00
1.71684215e+00
1.71767238e+00
1.71733852e+00
1.71629643e+00
1.71531487e+00
1.71535214e+00
1.71569911e+00
1.71609346e+00
1.71625350e+00
1.71612424e+00
1.71595581e+00
1.71588557e+00
1.71593192e+00
1.71602827e+00
1.71610725e+00
1.71609550e+00
1.71605770e+00
1.71600770e+00
1.71597544e+00
1.71597903e+00
1.71598454e+00
1.71598583e+00
1.71598272e+00
1.71597747e+00
1.71597075e+00
1.71596266e+00
1.71595363e+00
1.71594545e+00
1.71593836e+00
1.71593346e+00
1.71592891e+00
1.71592916e+00
1.71593156e+00
1.71593504e+00
1.71593946e+00
1.71594174e+00
1.71594161e+00
1.71593987e+00
1.71593718e+00
1.71593599e+00
1.71593641e+00
1.71594127e+00
1.71595242e+00
1.71596790e+00
1.71597816e+00
1.71598011e+00
1.71593209e+00
1.17659149e+00
1.17659149e+00
1.17659149e+00
1.17659149e+00
1.17659149e+00
1.17659149e+00
1.17659149e+00
1.17659149e+00
1.17659149e+00
1.17659149e+00
1.17659149e+00
1.17659149e+00
1.17659149e+00
1.17659149e+00
1.17659149e+00
1.17659149e+00
1.17659149e+00
1.17659153e+00
1.17659286e+00
1.17662021e+00
1.17697833e+00
1.17997671e+00
1.19613658e+00
1.25035686e+00
1.36223520e+00
1.50437999e+00
1.61822717e+00
1.67709049e+00
1.69690732e+00
1.70288170e+00
1.70858623e+00
1.71495039e+00
1.72115309e+00
1.72070626e+00
1.71808270e+00
1.71486696e+00
1.71395246e+00
1.71457086e+00
1.71581421e+00
1.71664798e+00
1.71656883e+00
1.71619983e+00
1.71577121e+00
1.71577641e+00
1.71595527e+00
1.71616633e+00
1.71624537e+00
1.71619096e+00
1.71605969e+00
1.71596188e+00
1.71591606e+00
1.71592717e+00
1.71594635e+00
1.71595444e+00
1.71595032e+00
1.71594331e+00
1.71593906e+00
1.71593768e+00
1.71593739e+00
1.71593793e+00
1.71593853e+00
1.71594027e+00
1.71594353e+00
1.71594803e+00
1.71595270e+00
1.71595702e+00
1.71595844e+00
1.71595768e+00
1.71595581e+00
1.71595288e+00
1.71594865e+00
1.71594371e+00
1.71594180e+00
1.71594219e+00
1.71594528e+00
1.71595389e+00
1.71596325e+00
1.71596633e+00
1.71596636e+00
1.71590832e+00
1.17659149e+00
1.17659149e+00
1.17659149e+00
1.17659149e+00
1.17659149e+00
1.17659149e+00
1.17659149e+00
1.17659149e+00
1.17659149e+00
1.17659149e+00
1.17659149e+00
1.17659149e+00
1.17659149e+00
1.17659149e+00
1.17659149e+00
1.17659149e+00
1.17659149e+00
1.17659149e+00
1.17659149e+00
1.17659156e+00
1.17659358e+00
1.17663223e+00
1.17711417e+00
1.18097323e+00
1.20053300e+00
1.26194198e+00
1.38047025e+00
1.52252670e+00
1.63223404e+00
1.69243315e+00
1.71902625e+00
1.72693326e+00
1.72363059e+00
1.71684822e+00
1.71139936e+00
1.71190980e+00
1.71434527e+00
1.71755480e+00
1.71752504e+00
1.71691396e+00
1.71584152e+00
1.71543151e+00
1.71562745e+00
1.71611453e+00
1.71655258e+00
1.71653122e+00
1.71630941e+00
1.71603061e+00
1.71589787e+00
1.71591664e+00
1.71597430e+00
1.71601584e+00
1.71600755e+00
1.71598454e+00
1.71595936e+00
1.71595584e+00
1.71595790e+00
1.71596441e+00
1.71597229e+00
1.71598089e+00
1.71598982e+00
1.71600097e+00
1.71601330e+00
1.71602176e+00
1.71602812e+00
1.71602760e+00
1.71602512e+00
1.71602106e+00
1.71601562e+00
1.71600913e+00
1.71600180e+00
1.71599392e+00
1.71598855e+00
1.71598780e+00
1.71598765e+00
1.71599144e+00
1.71599753e+00
1.71599771e+00
1.71599369e+00
1.71592495e+00
1.17659149e+00
1.17659149e+00
1.17659149e+00
1.17659149e+00
1.17659149e+00
1.17659149e+00
1.17659149e+00
1.17659149e+00
1.17659149e+00
1.17659149e+00
1.17659149e+00
1.17659149e+00
1.17659149e+00
1.17659149e+00
1.17659149e+00
1.17659149e+00
1.17659149e+00
1.17659149e+00
1.17659149e+00
1.17659149e+00
1.17659149e+00
1.17659160e+00
1.17659460e+00
1.17664991e+00
1.17730400e+00
1.18223165e+00
1.20562383e+00
1.27440719e+00
1.39896341e+00
1.53891008e+00
1.63886360e+00
1.68545502e+00
1.70047331e+00
1.70485337e+00
1.71090119e+00
1.71724250e+00
1.72110109e+00
1.72013034e+00
1.71718109e+00
1.71426216e+00
1.71436498e+00
1.71528818e+00
1.71667572e+00
1.71716811e+00
1.71689083e+00
1.71630667e+00
1.71579568e+00
1.71572493e+00
1.71586661e+00
1.71605298e+00
1.71610837e+00
1.71606354e+00
1.71597731e+00
1.71591584e+00
1.71591669e+00
1.71592882e+00
1.71594232e+00
1.71595269e+00
1.71596535e+00
1.71598204e+00
1.71600391e+00
1.71602657e+00
1.71604146e+00
1.71605008e+00
1.71604973e+00
1.71604725e+00
1.71604416e+00
1.71604014e+00
1.71603389e+00
1.71602619e+00
1.71601670e+00
1.71600631e+00
1.71599776e+00
1.71599211e+00
1.71599146e+00
1.71599347e+00
1.71599549e+00
1.71599382e+00
1.71598718e+00
1.71591091e+00
1.17659149e+00
1.17659149e+00
1.17659149e+00
1.17659149e+00
1.17659149e+00
1.17659149e+00
1.17659149e+00
1.17659149e+00
1.17659149e+00
1.17659149e+00
1.17659149e+00
1.17659149e+00
1.17659149e+00
1.17659149e+00
1.17659149e+00
1.17659149e+00
1.17659149e+00
1.17659149e+00
1.17659149e+00
1.17659149e+00
1.17659149e+00
1.17659149e+00
1.17659149e+00
1.17659166e+00
1.17659621e+00
1.17667529e+00
1.17755357e+00
1.18376894e+00
1.21146161e+00
1.28786760e+00
1.41775925e+00
1.55570657e+00
1.65295453e+00
1.70131234e+00
1.72417867e+00
1.72685015e+00
1.72217217e+00
1.71424798e+00
1.71150218e+00
1.71280276e+00
1.71578979e+00
1.71809161e+00
1.71794080e+00
1.71694003e+00
1.71566380e+00
1.71530971e+00
1.71556031e+00
1.71600946e+00
1.71635231e+00