TITLE="anvil_cfd_result"
VARIABLES="x" "y" "rho" "u" "v" "p" "T" "Mach" "p0"
ZONE T="Fluid", I=80, J=40, DATAPACKING=POINT
6.25000000e-03 8.60204363e-03 1.32735252e+00 6.64470803e+02 3.56466749e+01 1.21942246e+05 3.20035576e+02 1.85546161e+00 7.62870347e+05
1.87500000e-02 1.08061309e-02 1.50096625e+00 6.34337077e+02 7.02957966e+01 1.45729129e+05 3.38225064e+02 1.73108665e+00 7.53931264e+05
3.12500000e-02 1.30102181e-02 1.62226679e+00 6.14685603e+02 9.11370811e+01 1.62570865e+05 3.49100752e+02 1.65901614e+00 7.54503869e+05
4.37500000e-02 1.52143054e-02 1.67549742e+00 6.06154747e+02 1.00822446e+02 1.69959754e+05 3.53372439e+02 1.63058836e+00 7.55992135e+05
5.62500000e-02 1.74183927e-02 1.70442165e+00 6.01367035e+02 1.04163398e+02 1.74180946e+05 3.56003237e+02 1.61355155e+00 7.55375286e+05
6.87500000e-02 1.96224799e-02 1.70365743e+00 6.01415096e+02 1.05742658e+02 1.73984849e+05 3.55761956e+02 1.61494187e+00 7.56085001e+05
8.12500000e-02 2.18265672e-02 1.69926911e+00 6.01967252e+02 1.06380349e+02 1.73340399e+05 3.55359536e+02 1.61758786e+00 7.56252632e+05
9.37500000e-02 2.40306544e-02 1.69495155e+00 6.02553955e+02 1.06537343e+02 1.72720532e+05 3.54990740e+02 1.62002985e+00 7.56289531e+05
1.06250000e-01 2.62347417e-02 1.69033801e+00 6.03250561e+02 1.06607091e+02 1.72034737e+05 3.54546281e+02 1.62289441e+00 7.56503805e+05
1.18750000e-01 2.84388290e-02 1.69177633e+00 6.03101153e+02 1.06307614e+02 1.72238018e+05 3.54663439e+02 1.62209874e+00 7.56501495e+05
1.31250000e-01 3.06429162e-02 1.69508347e+00 6.02711565e+02 1.06023708e+02 1.72696759e+05 3.54914256e+02 1.62037917e+00 7.56578434e+05
1.43750000e-01 3.28470035e-02 1.69912794e+00 6.02220400e+02 1.05863909e+02 1.73252996e+05 3.55209864e+02 1.61835121e+00 7.56729631e+05
1.56250000e-01 3.50510907e-02 1.70039486e+00 6.02046356e+02 1.05974241e+02 1.73424908e+05 3.55297403e+02 1.61774878e+00 7.56802362e+05
1.68750000e-01 3.72551780e-02 1.69923310e+00 6.02202240e+02 1.06224706e+02 1.73242608e+05 3.55166585e+02 1.61856808e+00 7.56928308e+05
1.81250000e-01 3.94592653e-02 1.69709982e+00 6.02484035e+02 1.06345474e+02 1.72935384e+05 3.54982401e+02 1.61977821e+00 7.56946949e+05
1.93750000e-01 4.16633525e-02 1.69547624e+00 6.02761740e+02 1.06367536e+02 1.72678162e+05 3.54793826e+02 1.62094301e+00 7.57131720e+05
2.06250000e-01 4.38674398e-02 1.69599653e+00 6.02717340e+02 1.06261200e+02 1.72747253e+05 3.54826899e+02 1.62070276e+00 7.57164010e+05
2.18750000e-01 4.60715270e-02 1.69708580e+00 6.02604066e+02 1.06173349e+02 1.72891511e+05 3.54895274e+02 1.62021087e+00 7.57242051e+05
2.31250000e-01 4.82756143e-02 1.69854577e+00 6.02445135e+02 1.06124835e+02 1.73082453e+05 3.54981837e+02 1.61957663e+00 7.57363586e+05
2.43750000e-01 5.04797015e-02 1.69850105e+00 6.02458069e+02 1.06190443e+02 1.73067869e+05 3.54961272e+02 1.61968742e+00 7.57424555e+05
2.56250000e-01 5.26837888e-02 1.69790992e+00 6.02548435e+02 1.06275064e+02 1.72972959e+05 3.54890124e+02 1.62012431e+00 7.57501250e+05
2.68750000e-01 5.48878761e-02 1.69708083e+00 6.02694786e+02 1.06307911e+02 1.72837047e+05 3.54784514e+02 1.62076223e+00 7.57624602e+05
2.81250000e-01 5.70919633e-02 1.69709308e+00 6.02708081e+02 1.06285144e+02 1.72833389e+05 3.54774444e+02 1.62080944e+00 7.57661770e+05
2.93750000e-01 5.92960506e-02 1.69735594e+00 6.02698090e+02 1.06253335e+02 1.72860693e+05 3.54775541e+02 1.62076625e+00 7.57732777e+05
3.06250000e-01 6.15001378e-02 1.69781071e+00 6.02665272e+02 1.06230343e+02 1.72912710e+05 3.54787243e+02 1.62064336e+00 7.57822250e+05
3.18750000e-01 6.37042251e-02 1.69817080e+00 6.02633361e+02 1.06228175e+02 1.72957186e+05 3.54803247e+02 1.62052258e+00 7.57881004e+05
3.31250000e-01 6.59083124e-02 1.69826103e+00 6.02646590e+02 1.06247221e+02 1.72955444e+05 3.54780824e+02 1.62061705e+00 7.57979879e+05
3.43750000e-01 6.81123996e-02 1.69822010e+00 6.02672565e+02 1.06266665e+02 1.72939370e+05 3.54756402e+02 1.62074952e+00 7.58058800e+05
3.56250000e-01 7.03164869e-02 1.69814946e+00 6.02703529e+02 1.06276801e+02 1.72919347e+05 3.54730084e+02 1.62089507e+00 7.58135154e+05
3.68750000e-01 7.25205741e-02 1.69810278e+00 6.02734228e+02 1.06280638e+02 1.72901234e+05 3.54702675e+02 1.62103953e+00 7.58218666e+05
3.81250000e-01 7.47246614e-02 1.69811227e+00 6.02753264e+02 1.06281799e+02 1.72893771e+05 3.54685383e+02 1.62112924e+00 7.58287125e+05
3.93750000e-01 7.69287487e-02 1.69814345e+00 6.02771243e+02 1.06282533e+02 1.72888439e+05 3.54667933e+02 1.62121635e+00 7.58362015e+05
4.06250000e-01 7.91328359e-02 1.69819573e+00 6.02786371e+02 1.06283045e+02 1.72886068e+05 3.54652152e+02 1.62129212e+00 7.58437102e+05
4.18750000e-01 8.13369232e-02 1.69826678e+00 6.02798480e+02 1.06283299e+02 1.72886533e+05 3.54638265e+02 1.62135557e+00 7.58510733e+05
4.31250000e-01 8.35410104e-02 1.69836311e+00 6.02806887e+02 1.06282504e+02 1.72890726e+05 3.54626753e+02 1.62140345e+00 7.58583167e+05
4.43750000e-01 8.57450977e-02 1.69848547e+00 6.02811484e+02 1.06280926e+02 1.72898738e+05 3.54617638e+02 1.62143555e+00 7.58654555e+05
4.56250000e-01 8.79491849e-02 1.69862146e+00 6.02813758e+02 1.06279788e+02 1.72908842e+05 3.54609971e+02 1.62145849e+00 7.58724781e+05
4.68750000e-01 9.01532722e-02 1.69875789e+00 6.02815487e+02 1.06279742e+02 1.72919183e+05 3.54602696e+02 1.62147961e+00 7.58794003e+05
4.81250000e-01 9.23573595e-02 1.69888082e+00 6.02818620e+02 1.06281199e+02 1.72927758e+05 3.54594620e+02 1.62150692e+00 7.58862458e+05
4.93750000e-01 9.45614467e-02 1.69898176e+00 6.02824287e+02 1.06284069e+02 1.72933366e+05 3.54585052e+02 1.62154490e+00 7.58929954e+05
5.06250000e-01 9.67655340e-02 1.69905552e+00 6.02833455e+02 1.06288011e+02 1.72935162e+05 3.54573341e+02 1.62159741e+00 7.58997129e+05
5.18750000e-01 9.89696212e-02 1.69911219e+00 6.02844796e+02 1.06291858e+02 1.72934615e+05 3.54560393e+02 1.62165838e+00 7.59063573e+05
5.31250000e-01 1.01173709e-01 1.69915648e+00 6.02857641e+02 1.06295478e+02 1.72932398e+05 3.54546607e+02 1.62172508e+00 7.59129182e+05
5.43750000e-01 1.03377796e-01 1.69919286e+00 6.02871352e+02 1.06298779e+02 1.72929174e+05 3.54532404e+02 1.62179486e+00 7.59193836e+05
5.56250000e-01 1.05581883e-01 1.69922517e+00 6.02885400e+02 1.06301720e+02 1.72925514e+05 3.54518162e+02 1.62186544e+00 7.59257498e+05
5.68750000e-01 1.07785970e-01 1.69925637e+00 6.02899388e+02 1.06304327e+02 1.72921849e+05 3.54504139e+02 1.62193521e+00 7.59320229e+05
5.81250000e-01 1.09990058e-01 1.69928875e+00 6.02913042e+02 1.06306644e+02 1.72918484e+05 3.54490485e+02 1.62200314e+00 7.59382197e+05
5.93750000e-01 1.12194145e-01 1.69932286e+00 6.02926299e+02 1.06308800e+02 1.72915477e+05 3.54477204e+02 1.62206910e+00 7.59443532e+05
6.06250000e-01 1.14398232e-01 1.69935935e+00 6.02939078e+02 1.06310814e+02 1.72912902e+05 3.54464313e+02 1.62213287e+00 7.59504276e+05
6.18750000e-01 1.16602319e-01 1.69939924e+00 6.02951229e+02 1.06312636e+02 1.72910896e+05 3.54451883e+02 1.62219386e+00 7.59564393e+05
6.31250000e-01 1.18806407e-01 1.69944332e+00 6.02962641e+02 1.06314273e+02 1.72909567e+05 3.54439965e+02 1.62225166e+00 7.59623886e+05
6.43750000e-01 1.21010494e-01 1.69948835e+00 6.02973674e+02 1.06316054e+02 1.72908463e+05 3.54428311e+02 1.62230794e+00 7.59682651e+05
6.56250000e-01 1.23214581e-01 1.69953194e+00 6.02984639e+02 1.06318055e+02 1.72907249e+05 3.54416732e+02 1.62236397e+00 7.59740660e+05
6.68750000e-01 1.25418668e-01 1.69957371e+00 6.02995630e+02 1.06320138e+02 1.72905872e+05 3.54405199e+02 1.62242001e+00 7.59797961e+05
6.81250000e-01 1.27622756e-01 1.69961569e+00 6.03006422e+02 1.06322064e+02 1.72904625e+05 3.54393889e+02 1.62247495e+00 7.59854594e+05
6.93750000e-01 1.29826843e-01 1.69965950e+00 6.03016813e+02 1.06323764e+02 1.72903739e+05 3.54382938e+02 1.62252791e+00 7.59910595e+05
7.06250000e-01 1.32030930e-01 1.69970574e+00 6.03026715e+02 1.06325290e+02 1.72903299e+05 3.54372395e+02 1.62257859e+00 7.59965968e+05
7.18750000e-01 1.34235017e-01 1.69975389e+00 6.03036178e+02 1.06326746e+02 1.72903232e+05 3.54362218e+02 1.62262726e+00 7.60020708e+05
7.31250000e-01 1.36439105e-01 1.69980336e+00 6.03045277e+02 1.06328182e+02 1.72903442e+05 3.54352337e+02 1.62267428e+00 7.60074820e+05
7.43750000e-01 1.38643192e-01 1.69985431e+00 6.03054009e+02 1.06329549e+02 1.72903943e+05 3.54342743e+02 1.62271967e+00 7.60128358e+05
7.56250000e-01 1.40847279e-01 1.69990797e+00 6.03062237e+02 1.06330750e+02 1.72904896e+05 3.54333510e+02 1.62276283e+00 7.60181378e+05
7.68750000e-01 1.43051366e-01 1.69996595e+00 6.03069753e+02 1.06331696e+02 1.72906526e+05 3.54324765e+02 1.62280291e+00 7.60233884e+05
7.81250000e-01 1.45255454e-01 1.70003078e+00 6.03076241e+02 1.06332266e+02 1.72909193e+05 3.54316718e+02 1.62283853e+00 7.60285911e+05
7.93750000e-01 1.47459541e-01 1.70010221e+00 6.03081698e+02 1.06332628e+02 1.72912873e+05 3.54309372e+02 1.62286976e+00 7.60337430e+05
8.06250000e-01 1.49663628e-01 1.70017793e+00 6.03086382e+02 1.06333024e+02 1.72917251e+05 3.54302562e+02 1.62289777e+00 7.60388367e+05
8.18750000e-01 1.51867715e-01 1.70025466e+00 6.03090696e+02 1.06333646e+02 1.72921864e+05 3.54296026e+02 1.62292428e+00 7.60438660e+05
8.31250000e-01 1.54071803e-01 1.70032844e+00 6.03095174e+02 1.06334624e+02 1.72926147e+05 3.54289426e+02 1.62295154e+00 7.60488337e+05
8.43750000e-01 1.56275890e-01 1.70039658e+00 6.03100193e+02 1.06335962e+02 1.72929704e+05 3.54282517e+02 1.62298108e+00 7.60537413e+05
8.56250000e-01 1.58479977e-01 1.70045645e+00 6.03106151e+02 1.06337677e+02 1.72932153e+05 3.54275060e+02 1.62301449e+00 7.60586010e+05
8.68750000e-01 1.60684064e-01 1.70050682e+00 6.03113267e+02 1.06339719e+02 1.72933317e+05 3.54266950e+02 1.62305259e+00 7.60634244e+05
8.81250000e-01 1.62888152e-01 1.70054609e+00 6.03121853e+02 1.06342109e+02 1.72932956e+05 3.54258030e+02 1.62309653e+00 7.60682398e+05
8.93750000e-01 1.65092239e-01 1.70057613e+00 6.03131708e+02 1.06344625e+02 1.72931337e+05 3.54248455e+02 1.62314535e+00 7.60730543e+05
9.06250000e-01 1.67296326e-01 1.70059962e+00 6.03142460e+02 1.06347124e+02 1.72928844e+05 3.54238456e+02 1.62319746e+00 7.60778585e+05
9.18750000e-01 1.69500414e-01 1.70061838e+00 6.03153758e+02 1.06349615e+02 1.72925736e+05 3.54228180e+02 1.62325165e+00 7.60826258e+05
9.31250000e-01 1.71704501e-01 1.70063513e+00 6.03165011e+02 1.06352038e+02 1.72922408e+05 3.54217876e+02 1.62330574e+00 7.60872871e+05
9.43750000e-01 1.73908588e-01 1.70065368e+00 6.03175533e+02 1.06354226e+02 1.72919393e+05 3.54207835e+02 1.62335722e+00 7.60917902e+05
9.56250000e-01 1.76112675e-01 1.70067538e+00 6.03184978e+02 1.06356045e+02 1.72916992e+05 3.54198399e+02 1.62340434e+00 7.60960694e+05
9.68750000e-01 1.78316763e-01 1.70070301e+00 6.03193961e+02 1.06357703e+02 1.72915280e+05 3.54189137e+02 1.62344977e+00 7.61004620e+05
9.81250000e-01 1.80520850e-01 1.70072840e+00 6.03200217e+02 1.06358482e+02 1.72913614e+05 3.54180436e+02 1.62348640e+00 7.61038771e+05
9.93750000e-01 1.82724937e-01 1.70073337e+00 6.03223335e+02 1.06361217e+02 1.72906444e+05 3.54164716e+02 1.62358404e+00 7.61117809e+05
6.25000000e-03 2.36020436e-02 1.20115457e+00 6.90084916e+02 5.66530503e+00 1.04357700e+05 3.02660641e+02 1.97874737e+00 7.90004228e+05
1.87500000e-02 2.58061309e-02 1.27983619e+00 6.76259337e+02 2.38444289e+01 1.14369500e+05 3.11305062e+02 1.91311524e+00 7.82041088e+05
3.12500000e-02 2.80102181e-02 1.41334806e+00 6.53782790e+02 5.27724270e+01 1.31869244e+05 3.25030964e+02 1.81481560e+00 7.75070437e+05
4.37500000e-02 3.02143054e-02 1.55147380e+00 6.31541371e+02 7.97879462e+01 1.50449384e+05 3.37812964e+02 1.72764062e+00 7.74298702e+05
5.62500000e-02 3.24183927e-02 1.65166284e+00 6.15765994e+02 9.71995052e+01 1.64185959e+05 3.46293995e+02 1.67104727e+00 7.75872094e+05
6.87500000e-02 3.46224799e-02 1.68965688e+00 6.09273410e+02 1.06167205e+02 1.69460651e+05 3.49382136e+02 1.65047265e+00 7.76485916e+05
8.12500000e-02 3.68265672e-02 1.70541295e+00 6.06891433e+02 1.07131333e+02 1.71712860e+05 3.50754791e+02 1.64143462e+00 7.76249289e+05
9.37500000e-02 3.90306544e-02 1.70867970e+00 6.06256993e+02 1.08197965e+02 1.72172176e+05 3.51020641e+02 1.63964605e+00 7.76249964e+05
1.06250000e-01 4.12347417e-02 1.71248389e+00 6.05823548e+02 1.07262386e+02 1.72750024e+05 3.51416354e+02 1.63715133e+00 7.75960687e+05
1.18750000e-01 4.34388290e-02 1.71603695e+00 6.05545873e+02 1.06079798e+02 1.73231218e+05 3.51665586e+02 1.63529805e+00 7.75973664e+05
1.31250000e-01 4.56429162e-02 1.71602574e+00 6.05544098e+02 1.05814281e+02 1.73274621e+05 3.51755992e+02 1.63496153e+00 7.75778587e+05
1.43750000e-01 4.78470035e-02 1.71474929e+00 6.05631771e+02 1.06177662e+02 1.73105909e+05 3.51675089e+02 1.63554595e+00 7.75699139e+05
1.56250000e-01 5.00510907e-02 1.71293008e+00 6.05778861e+02 1.06850967e+02 1.72844834e+05 3.51517632e+02 1.63660790e+00 7.75757290e+05
1.68750000e-01 5.22551780e-02 1.71310632e+00 6.05584762e+02 1.07497301e+02 1.72893171e+05 3.51579763e+02 1.63625442e+00 7.75565106e+05
1.81250000e-01 5.44592653e-02 1.71346447e+00 6.05517586e+02 1.07412188e+02 1.72958939e+05 3.51639987e+02 1.63589879e+00 7.75448609e+05
1.93750000e-01 5.66633525e-02 1.71452856e+00 6.05425978e+02 1.07029651e+02 1.73118756e+05 3.51746466e+02 1.63523383e+00 7.75395622e+05
2.06250000e-01 5.88674398e-02 1.71430634e+00 6.05476209e+02 1.06667139e+02 1.73107134e+05 3.51768448e+02 1.63514674e+00 7.75242854e+05
2.18750000e-01 6.10715270e-02 1.71381072e+00 6.05544577e+02 1.06527240e+02 1.73049248e+05 3.51752512e+02 1.63529835e+00 7.75158893e+05
2.31250000e-01 6.32756143e-02 1.71333006e+00 6.05571826e+02 1.06668660e+02 1.72988657e+05 3.51727998e+02 1.63549192e+00 7.75111264e+05
2.43750000e-01 6.54797015e-02 1.71276768e+00 6.05555060e+02 1.06899193e+02 1.72934513e+05 3.51733361e+02 1.63554202e+00 7.74926566e+05
2.56250000e-01 6.76837888e-02 1.71303017e+00 6.05494841e+02 1.07087973e+02 1.72969407e+05 3.51750424e+02 1.63543200e+00 7.74955730e+05
2.68750000e-01 6.98878761e-02 1.71334183e+00 6.05436827e+02 1.07037664e+02 1.73025377e+05 3.51800241e+02 1.63514097e+00 7.74870045e+05
2.81250000e-01 7.20919633e-02 1.71354095e+00 6.05414055e+02 1.06917834e+02 1.73064578e+05 3.51839054e+02 1.63493569e+00 7.74808329e+05
2.93750000e-01 7.42960506e-02 1.71333965e+00 6.05439735e+02 1.06815420e+02 1.73045719e+05 3.51842048e+02 1.63494864e+00 7.74738865e+05
3.06250000e-01 7.65001378e-02 1.71297837e+00 6.05477589e+02 1.06754273e+02 1.73005654e+05 3.51834776e+02 1.63503644e+00 7.74660925e+05
3.18750000e-01 7.87042251e-02 1.71264271e+00 6.05500710e+02 1.06785005e+02 1.72967024e+05 3.51825156e+02 1.63513353e+00 7.74600129e+05
3.31250000e-01 8.09083124e-02 1.71240719e+00 6.05508594e+02 1.06814810e+02 1.72943134e+05 3.51824944e+02 1.63516845e+00 7.74533474e+05
3.43750000e-01 8.31123996e-02 1.71225304e+00 6.05507408e+02 1.06821796e+02 1.72931486e+05 3.51832921e+02 1.63515003e+00 7.74460033e+05
3.56250000e-01 8.53164869e-02 1.71214063e+00 6.05504015e+02 1.06815541e+02 1.72925201e+05 3.51843232e+02 1.63511429e+00 7.74390605e+05
3.68750000e-01 8.75205741e-02 1.71200725e+00 6.05505351e+02 1.06800468e+02 1.72915744e+05 3.51851399e+02 1.63509185e+00 7.74322337e+05
3.81250000e-01 8.97246614e-02 1.71187085e+00 6.05507724e+02 1.06783469e+02 1.72905750e+05 3.51859098e+02 1.63507232e+00 7.74255033e+05
3.93750000e-01 9.19287487e-02 1.71175254e+00 6.05507491e+02 1.06767813e+02 1.72897871e+05 3.51867383e+02 1.63504524e+00 7.74188471e+05
4.06250000e-01 9.41328359e-02 1.71165692e+00 6.05505034e+02 1.06755001e+02 1.72893760e+05 3.51878674e+02 1.63500666e+00 7.74125516e+05
4.18750000e-01 9.63369232e-02 1.71161285e+00 6.05494860e+02 1.06741724e+02 1.72894702e+05 3.51889648e+02 1.63494839e+00 7.74062452e+05
4.31250000e-01 9.85410104e-02 1.71159080e+00 6.05483603e+02 1.06730639e+02 1.72901323e+05 3.51907659e+02 1.63487195e+00 7.74003850e+05
4.43750000e-01 1.00745098e-01 1.71159218e+00 6.05466622e+02 1.06721514e+02 1.72909823e+05 3.51924676e+02 1.63478374e+00 7.73940075e+05
4.56250000e-01 1.02949185e-01 1.71159984e+00 6.05448866e+02 1.06719053e+02 1.72918924e+05 3.51941622e+02 1.63469675e+00 7.73880395e+05
4.68750000e-01 1.05153272e-01 1.71159678e+00 6.05432802e+02 1.06721777e+02 1.72926552e+05 3.51957778e+02 1.63461843e+00 7.73824133e+05
4.81250000e-01 1.07357359e-01 1.71158382e+00 6.05417252e+02 1.06728527e+02 1.72932390e+05 3.51972325e+02 1.63454704e+00 7.73767874e+05
4.93750000e-01 1.09561447e-01 1.71155971e+00 6.05403246e+02 1.06736782e+02 1.72936652e+05 3.51985957e+02 1.63448253e+00 7.73712493e+05
5.06250000e-01 1.11765534e-01 1.71152297e+00 6.05391522e+02 1.06745051e+02 1.72938905e+05 3.51998098e+02 1.63442746e+00 7.73659033e+05
5.18750000e-01 1.13969621e-01 1.71147148e+00 6.05382384e+02 1.06748861e+02 1.72939152e+05 3.52009193e+02 1.63437954e+00 7.73604844e+05
5.31250000e-01 1.16173709e-01 1.71140781e+00 6.05375575e+02 1.06750970e+02 1.72937491e+05 3.52018908e+02 1.63434013e+00 7.73551951e+05
5.43750000e-01 1.18377796e-01 1.71133608e+00 6.05370571e+02 1.06751078e+02 1.72934510e+05 3.52027593e+02 1.63430691e+00 7.73500299e+05
5.56250000e-01 1.20581883e-01 1.71125904e+00 6.05366876e+02 1.06749595e+02 1.72930617e+05 3.52035515e+02 1.63427817e+00 7.73449724e+05
5.68750000e-01 1.22785970e-01 1.71118252e+00 6.05363597e+02 1.06747039e+02 1.72926643e+05 3.52043169e+02 1.63425064e+00 7.73400199e+05
5.81250000e-01 1.24990058e-01 1.71110787e+00 6.05360380e+02 1.06744198e+02 1.72922804e+05 3.52050712e+02 1.63422339e+00 7.73351608e+05
5.93750000e-01 1.27194145e-01 1.71103667e+00 6.05356909e+02 1.06741470e+02 1.72919335e+05 3.52058296e+02 1.63419544e+00 7.73303857e+05
6.06250000e-01 1.29398232e-01 1.71097093e+00 6.05352893e+02 1.06738886e+02 1.72916514e+05 3.52066082e+02 1.63416567e+00 7.73256908e+05
6.18750000e-01 1.31602319e-01 1.71091184e+00 6.05348164e+02 1.06736540e+02 1.72914508e+05 3.52074156e+02 1.63413347e+00 7.73210804e+05
6.31250000e-01 1.33806407e-01 1.71085800e+00 6.05342891e+02 1.06734539e+02 1.72913130e+05 3.52082429e+02 1.63409954e+00 7.73165517e+05
6.43750000e-01 1.36010494e-01 1.71080593e+00 6.05337423e+02 1.06733883e+02 1.72911860e+05 3.52090559e+02 1.63406605e+00 7.73121233e+05
6.56250000e-01 1.38214581e-01 1.71075694e+00 6.05331676e+02 1.06733782e+02 1.72910910e+05 3.52098706e+02 1.63403206e+00 7.73077788e+05
6.68750000e-01 1.40418668e-01 1.71071125e+00 6.05325798e+02 1.06733330e+02 1.72910313e+05 3.52106895e+02 1.63399746e+00 7.73035232e+05
6.81250000e-01 1.42622756e-01 1.71066811e+00 6.05320001e+02 1.06731958e+02 1.72909956e+05 3.52115047e+02 1.63396273e+00 7.72993606e+05
6.93750000e-01 1.44826843e-01 1.71062588e+00 6.05314446e+02 1.06729810e+02 1.72909610e+05 3.52123036e+02 1.63392866e+00 7.72952790e+05
7.06250000e-01 1.47030930e-01 1.71058442e+00 6.05309041e+02 1.06727228e+02 1.72909269e+05 3.52130877e+02 1.63389513e+00 7.72912611e+05
7.18750000e-01 1.49235017e-01 1.71054441e+00 6.05303610e+02 1.06724536e+02 1.72909041e+05 3.52138649e+02 1.63386164e+00 7.72872994e+05
7.31250000e-01 1.51439105e-01 1.71050750e+00 6.05297911e+02 1.06721853e+02 1.72909165e+05 3.52146501e+02 1.63382727e+00 7.72833933e+05
7.43750000e-01 1.53643192e-01 1.71047564e+00 6.05291715e+02 1.06719052e+02 1.72909905e+05 3.52154567e+02 1.63379104e+00 7.72795496e+05
7.56250000e-01 1.55847279e-01 1.71045014e+00 6.05284866e+02 1.06716003e+02 1.72911467e+05 3.52162999e+02 1.63375215e+00 7.72757654e+05
7.68750000e-01 1.58051366e-01 1.71043145e+00 6.05277390e+02 1.06712641e+02 1.72913837e+05 3.52171671e+02 1.63371091e+00 7.72720724e+05
7.81250000e-01 1.60255454e-01 1.71041998e+00 6.05269075e+02 1.06709076e+02 1.72917226e+05 3.52180937e+02 1.63366600e+00 7.72684130e+05
7.93750000e-01 1.62459541e-01 1.71041033e+00 6.05260669e+02 1.06706069e+02 1.72920756e+05 3.52190113e+02 1.63362133e+00 7.72648433e+05
8.06250000e-01 1.64663628e-01 1.71040081e+00 6.05252284e+02 1.06703919e+02 1.72924188e+05 3.52199065e+02 1.63357763e+00 7.72613417e+05
8.18750000e-01 1.66867715e-01 1.71038974e+00 6.05244093e+02 1.06702724e+02 1.72927291e+05 3.52207664e+02 1.63353570e+00 7.72578970e+05
8.31250000e-01 1.69071803e-01 1.71037464e+00 6.05236380e+02 1.06702496e+02 1.72929750e+05 3.52215780e+02 1.63349658e+00 7.72544893e+05
8.43750000e-01 1.71275890e-01 1.71035419e+00 6.05229395e+02 1.06702756e+02 1.72931380e+05 3.52223312e+02 1.63346095e+00 7.72511132e+05
8.56250000e-01 1.73479977e-01 1.71032599e+00 6.05223416e+02 1.06703618e+02 1.72931867e+05 3.52230112e+02 1.63342993e+00 7.72477578e+05
8.68750000e-01 1.75684064e-01 1.71029143e+00 6.05218396e+02 1.06704871e+02 1.72931374e+05 3.52236225e+02 1.63340319e+00 7.72444579e+05
8.81250000e-01 1.77888152e-01 1.71024853e+00 6.05214601e+02 1.06706488e+02 1.72929653e+05 3.52241555e+02 1.63338165e+00 7.72412080e+05
8.93750000e-01 1.80092239e-01 1.71020454e+00 6.05211301e+02 1.06707743e+02 1.72927702e+05 3.52246640e+02 1.63336180e+00 7.72380503e+05
9.06250000e-01 1.82296326e-01 1.71015781e+00 6.05208619e+02 1.06709078e+02 1.72925295e+05 3.52251363e+02 1.63334445e+00 7.72349769e+05
9.18750000e-01 1.84500414e-01 1.71010998e+00 6.05206242e+02 1.06710638e+02 1.72922657e+05 3.52255842e+02 1.63332856e+00 7.72319692e+05
9.31250000e-01 1.86704501e-01 1.71006486e+00 6.05203532e+02 1.06712107e+02 1.72920319e+05 3.52260372e+02 1.63331164e+00 7.72289766e+05
9.43750000e-01 1.88908588e-01 1.71002570e+00 6.05199881e+02 1.06712986e+02 1.72918753e+05 3.52265249e+02 1.63329119e+00 7.72259213e+05
9.56250000e-01 1.91112675e-01 1.70999264e+00 6.05195339e+02 1.06712970e+02 1.72917955e+05 3.52270434e+02 1.63326727e+00 7.72228113e+05
9.68750000e-01 1.93316763e-01 1.70996129e+00 6.05190542e+02 1.06712219e+02 1.72917459e+05 3.52275883e+02 1.63324174e+00 7.72196500e+05
9.81250000e-01 1.95520850e-01 1.70993212e+00 6.05187142e+02 1.06710887e+02 1.72916739e+05 3.52280426e+02 1.63322169e+00 7.72170206e+05
9.93750000e-01 1.97724937e-01 1.70985065e+00 6.05188797e+02 1.06707638e+02 1.72911037e+05 3.52285593e+02 1.63321255e+00 7.72134212e+05
6.25000000e-03 3.86020436e-02 1.17732480e+00 6.94323373e+02 1.70137308e-01 1.01413459e+05 3.00074884e+02 1.99939283e+00 7.92755352e+05
1.87500000e-02 4.08061309e-02 1.18425251e+00 6.93157992e+02 1.80123837e+00 1.02252924e+05 3.00788874e+02 1.99367321e+00 7.92238744e+05
3.12500000e-02 4.30102181e-02 1.21574180e+00 6.87837404e+02 9.27057597e+00 1.06133296e+05 3.04116966e+02 1.96768720e+00 7.89762526e+05
4.37500000e-02 4.52143054e-02 1.29878611e+00 6.73796837e+02 2.84372047e+01 1.16678426e+05 3.12955992e+02 1.90162522e+00 7.83785005e+05
5.62500000e-02 4.74183927e-02 1.43349830e+00 6.51583439e+02 5.70900116e+01 1.34345666e+05 3.26480182e+02 1.80573248e+00 7.78721317e+05
6.87500000e-02 4.96224799e-02 1.57544809e+00 6.29087747e+02 8.30401323e+01 1.53469041e+05 3.39349353e+02 1.71826406e+00 7.78709584e+05
8.12500000e-02 5.18265672e-02 1.66580995e+00 6.14791052e+02 9.83924260e+01 1.65944460e+05 3.47030506e+02 1.66719624e+00 7.79663320e+05
9.37500000e-02 5.40306544e-02 1.70490811e+00 6.08952699e+02 1.03279763e+02 1.71345668e+05 3.50108373e+02 1.64661301e+00 7.80605289e+05
1.06250000e-01 5.62347417e-02 1.72208102e+00 6.06317333e+02 1.04663881e+02 1.73814963e+05 3.51612193e+02 1.63679878e+00 7.80333593e+05
1.18750000e-01 5.84388290e-02 1.72179627e+00 6.06320188e+02 1.05270425e+02 1.73746521e+05 3.51531867e+02 1.63726854e+00 7.80573263e+05
1.31250000e-01 6.06429162e-02 1.71774972e+00 6.06752228e+02 1.05944795e+02 1.73174268e+05 3.51199445e+02 1.63948409e+00 7.80579211e+05
1.43750000e-01 6.28470035e-02 1.71167273e+00 6.07426007e+02 1.07171915e+02 1.72299271e+05 3.50665510e+02 1.64306469e+00 7.80798831e+05
1.56250000e-01 6.50510907e-02 1.71100903e+00 6.07389809e+02 1.07413653e+02 1.72228191e+05 3.50656816e+02 1.64310212e+00 7.80520360e+05
1.68750000e-01 6.72551780e-02 1.71285039e+00 6.07147986e+02 1.07428715e+02 1.72482102e+05 3.50796257e+02 1.64214830e+00 7.80558232e+05
1.81250000e-01 6.94592653e-02 1.71656768e+00 6.06707815e+02 1.07020091e+02 1.73007788e+05 3.51103427e+02 1.64008663e+00 7.80530587e+05
1.93750000e-01 7.16633525e-02 1.71864664e+00 6.06465504e+02 1.06783475e+02 1.73300808e+05 3.51272652e+02 1.63894710e+00 7.80523691e+05
2.06250000e-01 7.38674398e-02 1.71826295e+00 6.06512071e+02 1.06792530e+02 1.73247973e+05 3.51243973e+02 1.63914025e+00 7.80510728e+05
2.18750000e-01 7.60715270e-02 1.71660048e+00 6.06715112e+02 1.06917457e+02 1.73012807e+05 3.51106903e+02 1.64005020e+00 7.80510779e+05
2.31250000e-01 7.82756143e-02 1.71498070e+00 6.06893880e+02 1.07061450e+02 1.72790709e+05 3.50987375e+02 1.64086476e+00 7.80457435e+05
2.43750000e-01 8.04797015e-02 1.71439593e+00 6.06982639e+02 1.07057513e+02 1.72702889e+05 3.50928646e+02 1.64123299e+00 7.80489802e+05
2.56250000e-01 8.26837888e-02 1.71494387e+00 6.06919747e+02 1.06955111e+02 1.72782281e+05 3.50977793e+02 1.64090582e+00 7.80467217e+05
2.68750000e-01 8.48878761e-02 1.71569924e+00 6.06830658e+02 1.06862462e+02 1.72889152e+05 3.51040263e+02 1.64048342e+00 7.80457577e+05
2.81250000e-01 8.70919633e-02 1.71638945e+00 6.06728457e+02 1.06850663e+02 1.72989699e+05 3.51103172e+02 1.64006305e+00 7.80421507e+05
2.93750000e-01 8.92960506e-02 1.71633445e+00 6.06727916e+02 1.06900724e+02 1.72981159e+05 3.51097089e+02 1.64009896e+00 7.80424815e+05
3.06250000e-01 9.15001378e-02 1.71603248e+00 6.06753372e+02 1.06961882e+02 1.72939811e+05 3.51074932e+02 1.64024571e+00 7.80409239e+05
3.18750000e-01 9.37042251e-02 1.71575525e+00 6.06782279e+02 1.07008888e+02 1.72899893e+05 3.51050612e+02 1.64040005e+00 7.80408913e+05
3.31250000e-01 9.59083124e-02 1.71576982e+00 6.06771447e+02 1.07028853e+02 1.72903650e+05 3.51055257e+02 1.64037003e+00 7.80390893e+05
3.43750000e-01 9.81123996e-02 1.71583296e+00 6.06758892e+02 1.07032921e+02 1.72913087e+05 3.51061500e+02 1.64032441e+00 7.80380331e+05
3.56250000e-01 1.00316487e-01 1.71589758e+00 6.06743977e+02 1.07028188e+02 1.72924018e+05 3.51070472e+02 1.64026216e+00 7.80357131e+05
3.68750000e-01 1.02520574e-01 1.71589075e+00 6.06742821e+02 1.07025679e+02 1.72923795e+05 3.51071416e+02 1.64025576e+00 7.80348673e+05
3.81250000e-01 1.04724661e-01 1.71586228e+00 6.06743679e+02 1.07020779e+02 1.72920875e+05 3.51071311e+02 1.64025599e+00 7.80335758e+05
3.93750000e-01 1.06928749e-01 1.71582679e+00 6.06746116e+02 1.07012137e+02 1.72917052e+05 3.51070813e+02 1.64025954e+00 7.80322652e+05
4.06250000e-01 1.09132836e-01 1.71580188e+00 6.06746816e+02 1.06999390e+02 1.72914374e+05 3.51070471e+02 1.64025628e+00 7.80306767e+05
4.18750000e-01 1.11336923e-01 1.71580904e+00 6.06745328e+02 1.06981960e+02 1.72916375e+05 3.51073068e+02 1.64023826e+00 7.80294795e+05
4.31250000e-01 1.13541010e-01 1.71581806e+00 6.06743337e+02 1.06966120e+02 1.72918772e+05 3.51076088e+02 1.64021866e+00 7.80282782e+05
4.43750000e-01 1.15745098e-01 1.71582699e+00 6.06739369e+02 1.06954272e+02 1.72920624e+05 3.51078025e+02 1.64019826e+00 7.80267373e+05
4.56250000e-01 1.17949185e-01 1.71582337e+00 6.06737113e+02 1.06947396e+02 1.72921324e+05 3.51080185e+02 1.64018412e+00 7.80254059e+05
4.68750000e-01 1.20153272e-01 1.71581413e+00 6.06734142e+02 1.06949181e+02 1.72920971e+05 3.51081357e+02 1.64017441e+00 7.80241162e+05
4.81250000e-01 1.22357359e-01 1.71579793e+00 6.06732205e+02 1.06954597e+02 1.72919847e+05 3.51082393e+02 1.64016942e+00 7.80230277e+05
4.93750000e-01 1.24561447e-01 1.71579912e+00 6.06725773e+02 1.06961201e+02 1.72921092e+05 3.51084677e+02 1.64015027e+00 7.80213591e+05
5.06250000e-01 1.26765534e-01 1.71580608e+00 6.06719268e+02 1.06968654e+02 1.72923329e+05 3.51087794e+02 1.64012939e+00 7.80199350e+05
5.18750000e-01 1.28969621e-01 1.71581313e+00 6.06712770e+02 1.06975600e+02 1.72925878e+05 3.51091527e+02 1.64010684e+00 7.80184590e+05
5.31250000e-01 1.31173709e-01 1.71581879e+00 6.06706367e+02 1.06981251e+02 1.72927593e+05 3.51093849e+02 1.64008724e+00 7.80169499e+05
5.43750000e-01 1.33377796e-01 1.71581490e+00 6.06701999e+02 1.06985504e+02 1.72928327e+05 3.51096137e+02 1.64007241e+00 7.80155541e+05
5.56250000e-01 1.35581883e-01 1.71580441e+00 6.06698705e+02 1.06988616e+02 1.72927986e+05 3.51097591e+02 1.64006182e+00 7.80141664e+05
5.68750000e-01 1.37785970e-01 1.71578696e+00 6.06696600e+02 1.06989328e+02 1.72926696e+05 3.51098542e+02 1.64005441e+00 7.80127208e+05
5.81250000e-01 1.39990058e-01 1.71576376e+00 6.06695446e+02 1.06989388e+02 1.72924586e+05 3.51099007e+02 1.64005032e+00 7.80112937e+05
5.93750000e-01 1.42194145e-01 1.71573796e+00 6.06694750e+02 1.06988561e+02 1.72922169e+05 3.51099379e+02 1.64004725e+00 7.80098451e+05
6.06250000e-01 1.44398232e-01 1.71571007e+00 6.06694366e+02 1.06987013e+02 1.72919531e+05 3.51099728e+02 1.64004471e+00 7.80083595e+05
6.18750000e-01 1.46602319e-01 1.71567934e+00 6.06694357e+02 1.06984989e+02 1.72916548e+05 3.51099962e+02 1.64004321e+00 7.80068387e+05
6.31250000e-01 1.48806407e-01 1.71564885e+00 6.06694189e+02 1.06983072e+02 1.72913646e+05 3.51100307e+02 1.64004107e+00 7.80052808e+05
6.43750000e-01 1.51010494e-01 1.71561546e+00 6.06694491e+02 1.06980383e+02 1.72910335e+05 3.51100417e+02 1.64004036e+00 7.80037045e+05
6.56250000e-01 1.53214581e-01 1.71558919e+00 6.06693769e+02 1.06977806e+02 1.72908021e+05 3.51101096e+02 1.64003569e+00 7.80021171e+05
6.68750000e-01 1.55418668e-01 1.71557298e+00 6.06691721e+02 1.06975430e+02 1.72907108e+05 3.51102558e+02 1.64002581e+00 7.80005544e+05
6.81250000e-01 1.57622756e-01 1.71556562e+00 6.06688366e+02 1.06974024e+02 1.72907429e+05 3.51104717e+02 1.64001132e+00 7.79990121e+05
6.93750000e-01 1.59826843e-01 1.71556279e+00 6.06684326e+02 1.06973129e+02 1.72908342e+05 3.51107151e+02 1.63999463e+00 7.79974803e+05
7.06250000e-01 1.62030930e-01 1.71556096e+00 6.06680181e+02 1.06972215e+02 1.72909415e+05 3.51109704e+02 1.63997738e+00 7.79959555e+05
7.18750000e-01 1.64235017e-01 1.71555934e+00 6.06675973e+02 1.06970709e+02 1.72910546e+05 3.51112332e+02 1.63995952e+00 7.79943855e+05
7.31250000e-01 1.66439105e-01 1.71555729e+00 6.06672039e+02 1.06968246e+02 1.72911754e+05 3.51115204e+02 1.63994136e+00 7.79928158e+05
7.43750000e-01 1.68643192e-01 1.71555728e+00 6.06667571e+02 1.06964738e+02 1.72913176e+05 3.51118094e+02 1.63992127e+00 7.79911190e+05
7.56250000e-01 1.70847279e-01 1.71555887e+00 6.06663079e+02 1.06960449e+02 1.72914930e+05 3.51121331e+02 1.63989996e+00 7.79894281e+05